 sphere data

        9341    atoms
        2    atom types

 0.0 0.016  xlo xhi
 0.0 0.016  ylo yhi
 0.0 0.008  zlo zhi

Atoms

 16 2 0.0005 2500 0.000394338 0.00025 0.00025
 32 2 0.0005 2500 0.00082735 0.00025 0
 48 2 0.0005 2500 0.00126036 0.00025 0.00025
 64 2 0.0005 2500 0.00169338 0.00025 0
 80 2 0.0005 2500 0.00212639 0.00025 0.00025
 96 2 0.0005 2500 0.0025594 0.00025 0
 112 2 0.0005 2500 0.00299241 0.00025 0.00025
 128 2 0.0005 2500 0.00342543 0.00025 0
 144 2 0.0005 2500 0.00385844 0.00025 0.00025
 160 2 0.0005 2500 0.00429145 0.00025 0
 176 2 0.0005 2500 0.00472446 0.00025 0.00025
 192 2 0.0005 2500 0.00515748 0.00025 0
 208 2 0.0005 2500 0.00559049 0.00025 0.00025
 224 2 0.0005 2500 0.0060235 0.00025 0
 240 2 0.0005 2500 0.00645652 0.00025 0.00025
 256 2 0.0005 2500 0.00688953 0.00025 0
 272 2 0.0005 2500 0.00732254 0.00025 0.00025
 288 2 0.0005 2500 0.00775555 0.00025 0
 304 2 0.0005 2500 0.00818857 0.00025 0.00025
 320 2 0.0005 2500 0.00862158 0.00025 0
 336 2 0.0005 2500 0.00905459 0.00025 0.00025
 352 2 0.0005 2500 0.0094876 0.00025 0
 368 2 0.0005 2500 0.00992062 0.00025 0.00025
 384 2 0.0005 2500 0.0103536 0.00025 0
 400 2 0.0005 2500 0.0107866 0.00025 0.00025
 416 2 0.0005 2500 0.0112197 0.00025 0
 432 2 0.0005 2500 0.0116527 0.00025 0.00025
 448 2 0.0005 2500 0.0120857 0.00025 0
 464 2 0.0005 2500 0.0125187 0.00025 0.00025
 480 2 0.0005 2500 0.0129517 0.00025 0
 496 2 0.0005 2500 0.0133847 0.00025 0.00025
 512 2 0.0005 2500 0.0138177 0.00025 0
 528 2 0.0005 2500 0.0142507 0.00025 0.00025
 544 2 0.0005 2500 0.0146838 0.00025 0
 560 2 0.0005 2500 0.0151168 0.00025 0.00025
 576 2 0.0005 2500 0.0155498 0.00025 0
 592 2 0.0005 2500 0.00025 0.000683013 0
 593 2 0.0005 2500 0.000683013 0.000683013 0.00025
 624 2 0.0005 2500 0.00111603 0.000683013 0
 625 2 0.0005 2500 0.00154904 0.000683013 0.00025
 656 2 0.0005 2500 0.00198205 0.000683013 0
 657 2 0.0005 2500 0.00241506 0.000683013 0.00025
 688 2 0.0005 2500 0.00284808 0.000683013 0
 689 2 0.0005 2500 0.00328109 0.000683013 0.00025
 720 2 0.0005 2500 0.0037141 0.000683013 0
 721 2 0.0005 2500 0.00414711 0.000683013 0.00025
 752 2 0.0005 2500 0.00458013 0.000683013 0
 753 2 0.0005 2500 0.00501314 0.000683013 0.00025
 784 2 0.0005 2500 0.00544615 0.000683013 0
 785 2 0.0005 2500 0.00587917 0.000683013 0.00025
 816 2 0.0005 2500 0.00631218 0.000683013 0
 817 2 0.0005 2500 0.00674519 0.000683013 0.00025
 848 2 0.0005 2500 0.0071782 0.000683013 0
 849 2 0.0005 2500 0.00761122 0.000683013 0.00025
 880 2 0.0005 2500 0.00804423 0.000683013 0
 881 2 0.0005 2500 0.00847724 0.000683013 0.00025
 912 2 0.0005 2500 0.00891025 0.000683013 0
 913 2 0.0005 2500 0.00934327 0.000683013 0.00025
 944 2 0.0005 2500 0.00977628 0.000683013 0
 945 2 0.0005 2500 0.0102093 0.000683013 0.00025
 976 2 0.0005 2500 0.0106423 0.000683013 0
 977 2 0.0005 2500 0.0110753 0.000683013 0.00025
 1008 2 0.0005 2500 0.0115083 0.000683013 0
 1009 2 0.0005 2500 0.0119413 0.000683013 0.00025
 1040 2 0.0005 2500 0.0123744 0.000683013 0
 1041 2 0.0005 2500 0.0128074 0.000683013 0.00025
 1072 2 0.0005 2500 0.0132404 0.000683013 0
 1073 2 0.0005 2500 0.0136734 0.000683013 0.00025
 1104 2 0.0005 2500 0.0141064 0.000683013 0
 1105 2 0.0005 2500 0.0145394 0.000683013 0.00025
 1136 2 0.0005 2500 0.0149724 0.000683013 0
 1137 2 0.0005 2500 0.0154054 0.000683013 0.00025
 1168 2 0.0005 2500 0.000394338 0.00111603 0.00025
 2020 1 0.0005 2500 8.72593e-06 0.00131178 0.000499859
 1184 2 0.0005 2500 0.00082735 0.00111603 0
 1200 2 0.0005 2500 0.00126036 0.00111603 0.00025
 1216 2 0.0005 2500 0.00169338 0.00111603 0
 1232 2 0.0005 2500 0.00212639 0.00111603 0.00025
 1248 2 0.0005 2500 0.0025594 0.00111603 0
 1264 2 0.0005 2500 0.00299241 0.00111603 0.00025
 1280 2 0.0005 2500 0.00342543 0.00111603 0
 1296 2 0.0005 2500 0.00385844 0.00111603 0.00025
 1312 2 0.0005 2500 0.00429145 0.00111603 0
 1328 2 0.0005 2500 0.00472446 0.00111603 0.00025
 1344 2 0.0005 2500 0.00515748 0.00111603 0
 1360 2 0.0005 2500 0.00559049 0.00111603 0.00025
 1376 2 0.0005 2500 0.0060235 0.00111603 0
 1392 2 0.0005 2500 0.00645652 0.00111603 0.00025
 1408 2 0.0005 2500 0.00688953 0.00111603 0
 1424 2 0.0005 2500 0.00732254 0.00111603 0.00025
 1440 2 0.0005 2500 0.00775555 0.00111603 0
 1456 2 0.0005 2500 0.00818857 0.00111603 0.00025
 1472 2 0.0005 2500 0.00862158 0.00111603 0
 1488 2 0.0005 2500 0.00905459 0.00111603 0.00025
 1504 2 0.0005 2500 0.0094876 0.00111603 0
 1520 2 0.0005 2500 0.00992062 0.00111603 0.00025
 1536 2 0.0005 2500 0.0103536 0.00111603 0
 1552 2 0.0005 2500 0.0107866 0.00111603 0.00025
 1568 2 0.0005 2500 0.0112197 0.00111603 0
 1584 2 0.0005 2500 0.0116527 0.00111603 0.00025
 1600 2 0.0005 2500 0.0120857 0.00111603 0
 1616 2 0.0005 2500 0.0125187 0.00111603 0.00025
 1632 2 0.0005 2500 0.0129517 0.00111603 0
 1648 2 0.0005 2500 0.0133847 0.00111603 0.00025
 1664 2 0.0005 2500 0.0138177 0.00111603 0
 1680 2 0.0005 2500 0.0142507 0.00111603 0.00025
 1696 2 0.0005 2500 0.0146838 0.00111603 0
 1712 2 0.0005 2500 0.0151168 0.00111603 0.00025
 1728 2 0.0005 2500 0.0155498 0.00111603 0
 3616 1 0.0005 2500 0.000758675 0.00158221 0.000167724
 1985 1 0.0005 2500 0.00117932 0.00157182 0.000437222
 2025 1 0.0005 2500 0.00128409 0.00199426 0.000191259
 1921 1 0.0005 2500 0.00165238 0.00156198 0.000278371
 3226 1 0.0005 2500 0.00215217 0.00161041 0.000311494
 2459 1 0.0005 2500 0.00265059 0.00157374 0.00032661
 2841 1 0.0005 2500 0.0031285 0.00154406 0.000469393
 2099 1 0.0005 2500 0.00330652 0.00191456 0.000168758
 2809 1 0.0005 2500 0.00379539 0.00197616 6.07653e-05
 2043 1 0.0005 2500 0.00361746 0.00154926 0.000308279
 2021 1 0.0005 2500 0.00431214 0.00161141 0.000403902
 3621 1 0.0005 2500 0.00472408 0.00198912 0.00033842
 2022 1 0.0005 2500 0.00527714 0.00153195 0.000250307
 2397 1 0.0005 2500 0.0056634 0.00197392 0.00028616
 1924 1 0.0005 2500 0.00570966 0.00153215 1.92308e-07
 1950 1 0.0005 2500 0.0057238 0.00152724 0.000499996
 2036 1 0.0005 2500 0.00616778 0.00152425 0.000250037
 2788 1 0.0005 2500 0.00652406 0.00197634 0.000308032
 2037 1 0.0005 2500 0.00660084 0.00152424 2.06035e-07
 2015 1 0.0005 2500 0.00703384 0.00152421 0.000249999
 1905 1 0.0005 2500 0.00744023 0.00195529 0.000250658
 2024 1 0.0005 2500 0.00746672 0.00152363 0.000499936
 1875 1 0.0005 2500 0.00792061 0.00183482 0.000359809
 2378 1 0.0005 2500 0.00854757 0.00194955 0.000353151
 2003 1 0.0005 2500 0.00886457 0.0015449 0.000420863
 1961 1 0.0005 2500 0.00903061 0.00195584 0.000190402
 2059 1 0.0005 2500 0.0093103 0.00154143 0.000193894
 2836 1 0.0005 2500 0.00977565 0.0016736 0.000317243
 2458 1 0.0005 2500 0.0105832 0.00156694 0.000186677
 3611 1 0.0005 2500 0.0108627 0.00197073 0.00031547
 1937 1 0.0005 2500 0.0112636 0.00195734 1.74672e-05
 2448 1 0.0005 2500 0.0110778 0.00152512 0.000248789
 2843 1 0.0005 2500 0.011943 0.00152431 0.000250207
 2094 1 0.0005 2500 0.0115099 0.00152461 0.000499894
 1932 1 0.0005 2500 0.0128083 0.00152358 0.00024995
 2054 1 0.0005 2500 0.013238 0.00198159 0.000201676
 2471 1 0.0005 2500 0.013242 0.00152425 0.000499068
 2092 1 0.0005 2500 0.0136753 0.00152468 0.000249641
 2056 1 0.0005 2500 0.0142377 0.00192538 0.000266466
 2040 1 0.0005 2500 0.0145401 0.00152422 0.000250066
 2473 1 0.0005 2500 0.0146862 0.00195819 5.00992e-05
 2427 1 0.0005 2500 0.0150521 0.00156998 5.21621e-05
 2063 1 0.0005 2500 0.0151403 0.00199891 0.000463991
 1934 1 0.0005 2500 0.0155107 0.00154724 0.000250003
 2095 1 0.0005 2500 0.0159557 0.00180167 0.000422135
 2828 1 0.0005 2500 0.000159876 0.00225346 0.00048161
 2057 1 0.0005 2500 2.87212e-05 0.00209623 2.4929e-05
 2428 1 0.0005 2500 0.000582156 0.0020999 0.000263774
 2812 1 0.0005 2500 0.00120208 0.00244596 0.000384761
 2401 1 0.0005 2500 0.00174708 0.00200106 2.78152e-06
 2014 1 0.0005 2500 0.00172232 0.00235278 0.000356002
 2026 1 0.0005 2500 0.00217777 0.0023869 0.000153288
 3230 1 0.0005 2500 0.002446 0.00202599 0.000369261
 2849 1 0.0005 2500 0.00294344 0.00231788 0.000490154
 2433 1 0.0005 2500 0.00312557 0.00235712 2.37831e-05
 2831 1 0.0005 2500 0.00349396 0.00233176 0.000370707
 2487 1 0.0005 2500 0.00420735 0.00214173 0.000425641
 4387 1 0.0005 2500 0.00452609 0.00241868 0.000158786
 3153 1 0.0005 2500 0.00500439 0.00247297 2.55569e-05
 2032 1 0.0005 2500 0.00518005 0.0020082 0.00013444
 3583 1 0.0005 2500 0.00545965 0.00242531 0.000225562
 3178 1 0.0005 2500 0.00592215 0.00242581 0.000415046
 3164 1 0.0005 2500 0.00639119 0.00245251 0.00024421
 2804 1 0.0005 2500 0.00697331 0.00206978 0.00011339
 2767 1 0.0005 2500 0.00726624 0.00241866 0.000318141
 5186 1 0.0005 2500 0.00773814 0.00228099 0.000491817
 2393 1 0.0005 2500 0.00816059 0.00225222 0.00022612
 2377 1 0.0005 2500 0.00876681 0.00237889 0.000223383
 2790 1 0.0005 2500 0.00934643 0.00233973 0.000140728
 2792 1 0.0005 2500 0.00978526 0.00225964 0.00036602
 2421 1 0.0005 2500 0.0103698 0.00201352 0.000123851
 1972 1 0.0005 2500 0.0102648 0.00249999 8.77679e-05
 2380 1 0.0005 2500 0.0111995 0.00245074 5.54347e-05
 4403 1 0.0005 2500 0.0116633 0.00247325 0.000240013
 4003 1 0.0005 2500 0.011835 0.00200756 0.000186359
 2823 1 0.0005 2500 0.0122702 0.00200791 0.000431383
 3608 1 0.0005 2500 0.0123615 0.00245148 0.000162555
 2840 1 0.0005 2500 0.012731 0.00201593 0.000238633
 2761 1 0.0005 2500 0.0128697 0.00244316 2.23992e-05
 2799 1 0.0005 2500 0.0131302 0.00240827 0.000446701
 3602 1 0.0005 2500 0.0134514 0.00239739 2.41984e-05
 3612 1 0.0005 2500 0.0137421 0.00200798 0.000141859
 4383 1 0.0005 2500 0.0141299 0.00238764 0.000114954
 2774 1 0.0005 2500 0.0145843 0.00239522 0.00032239
 4002 1 0.0005 2500 0.0151751 0.00245434 0.000261093
 2447 1 0.0005 2500 0.0155819 0.00208225 0.000246725
 1966 1 0.0005 2500 0.000403857 0.00297023 0.000182682
 2819 1 0.0005 2500 0.000753533 0.00262153 0.000255398
 2357 1 0.0005 2500 0.00132092 0.00285792 0.000128597
 3204 1 0.0005 2500 0.00229288 0.0028582 3.59067e-05
 3601 1 0.0005 2500 0.00202427 0.0027562 0.000451918
 2385 1 0.0005 2500 0.00266271 0.00251709 0.000128402
 3225 1 0.0005 2500 0.00264573 0.00289835 0.0004506
 3203 1 0.0005 2500 0.00310733 0.00275818 0.000320787
 2713 1 0.0005 2500 0.00357876 0.00280574 0.000149662
 3235 1 0.0005 2500 0.00397985 0.00250706 0.000172231
 2334 1 0.0005 2500 0.00431596 0.00286436 7.63981e-05
 2673 1 0.0005 2500 0.00477383 0.00284021 0.000284238
 2387 1 0.0005 2500 0.00612235 0.00287284 0.000225342
 2395 1 0.0005 2500 0.00657192 0.0028679 0.000453391
 2743 1 0.0005 2500 0.00720094 0.00282451 3.39147e-05
 2327 1 0.0005 2500 0.00766907 0.00264124 0.000124236
 2347 1 0.0005 2500 0.00846031 0.00277278 0.000200931
 2706 1 0.0005 2500 0.00803605 0.00269223 0.000459393
 3575 1 0.0005 2500 0.00928678 0.00280379 0.000316092
 2325 1 0.0005 2500 0.00984134 0.00275648 2.06555e-05
 2773 1 0.0005 2500 0.0104512 0.00279204 0.000448207
 3107 1 0.0005 2500 0.0109236 0.00279818 0.000285382
 2762 1 0.0005 2500 0.0114122 0.00290125 0.000297919
 2775 1 0.0005 2500 0.0119467 0.00285869 9.52845e-05
 5573 1 0.0005 2500 0.0126207 0.00292866 0.000181804
 2344 1 0.0005 2500 0.0131911 0.00284049 0.000203899
 2684 1 0.0005 2500 0.013824 0.00277385 3.90989e-05
 3150 1 0.0005 2500 0.0144123 0.00279861 8.33017e-05
 3587 1 0.0005 2500 0.0149169 0.00285723 0.000117045
 2345 1 0.0005 2500 0.015431 0.00289052 0.000284713
 3634 1 0.0005 2500 0.0157802 0.00253478 0.000319551
 2801 1 0.0005 2500 0.0158728 0.00295104 5.91632e-05
 3058 1 0.0005 2500 0.000168025 0.00333882 0.000423467
 2672 1 0.0005 2500 0.000913457 0.00313745 0.000204266
 2388 1 0.0005 2500 0.00149637 0.00323523 0.000411348
 3165 1 0.0005 2500 0.00194949 0.00318464 0.000207178
 2653 1 0.0005 2500 0.00239761 0.00334561 9.17209e-06
 2739 1 0.0005 2500 0.00281252 0.00333961 0.000287603
 2292 1 0.0005 2500 0.00325449 0.00318652 0.000111038
 5172 1 0.0005 2500 0.00412897 0.00331123 0.000198215
 2760 1 0.0005 2500 0.00459554 0.0032732 9.27965e-06
 2805 1 0.0005 2500 0.00498552 0.00334724 0.000455586
 3604 1 0.0005 2500 0.00548164 0.00323259 0.000288463
 3215 1 0.0005 2500 0.00593497 0.00331724 9.60939e-05
 5552 1 0.0005 2500 0.00674434 0.00330512 0.000284907
 2341 1 0.0005 2500 0.00724216 0.00326665 0.000261165
 3198 1 0.0005 2500 0.00772225 0.00309399 0.000328687
 3167 1 0.0005 2500 0.00821241 0.0031898 0.000320715
 2755 1 0.0005 2500 0.00868713 0.00319058 0.00047738
 3161 1 0.0005 2500 0.00904767 0.00323429 0.000134031
 3447 1 0.0005 2500 0.0095362 0.00315587 6.55078e-05
 2776 1 0.0005 2500 0.0102238 0.00306744 9.92248e-05
 3196 1 0.0005 2500 0.0102035 0.00341594 0.000456845
 3169 1 0.0005 2500 0.0106608 0.00327305 0.000223206
 3942 1 0.0005 2500 0.0111068 0.00318057 1.75049e-05
 2768 1 0.0005 2500 0.0115079 0.00338829 0.000354565
 2696 1 0.0005 2500 0.0119534 0.00320216 0.000482004
 2403 1 0.0005 2500 0.0122614 0.00324147 3.08235e-05
 3102 1 0.0005 2500 0.0129731 0.00329319 5.83588e-05
 3065 1 0.0005 2500 0.0133563 0.00335187 0.000401149
 2644 1 0.0005 2500 0.0138177 0.00322029 0.000260899
 3078 1 0.0005 2500 0.0143994 0.00329425 0.000140971
 5555 1 0.0005 2500 0.0151903 0.00332795 0.000263266
 4789 1 0.0005 2500 0.0156905 0.00336108 0.000278153
 3593 1 0.0005 2500 0.000403596 0.00372427 0.00011333
 3130 1 0.0005 2500 6.55794e-05 0.00382525 0.000467237
 3546 1 0.0005 2500 0.000877919 0.00363455 0.000242576
 3129 1 0.0005 2500 0.00133843 0.00355638 6.42557e-05
 2701 1 0.0005 2500 0.00244449 0.00383962 6.56484e-05
 3140 1 0.0005 2500 0.0030564 0.00399345 0.000195341
 2677 1 0.0005 2500 0.00364589 0.00368295 0.000393788
 3087 1 0.0005 2500 0.00417327 0.00375142 0.000430484
 2291 1 0.0005 2500 0.00466204 0.00370868 0.000335079
 3170 1 0.0005 2500 0.00526622 0.00367559 0.000204652
 3104 1 0.0005 2500 0.00583882 0.00375733 0.00031198
 2675 1 0.0005 2500 0.0063125 0.00364632 0.000196816
 3539 1 0.0005 2500 0.00683631 0.00395092 0.000254576
 3148 1 0.0005 2500 0.00765787 0.00357592 0.00044344
 2724 1 0.0005 2500 0.00776796 0.00391648 9.45388e-05
 3556 1 0.0005 2500 0.00814814 0.00367206 0.0004358
 3585 1 0.0005 2500 0.00860983 0.00370321 0.000247235
 3182 1 0.0005 2500 0.00904634 0.00365356 0.000484746
 3553 1 0.0005 2500 0.00943884 0.0036324 0.000176526
 3174 1 0.0005 2500 0.00993048 0.00372177 0.000171062
 4740 1 0.0005 2500 0.0103927 0.00386658 0.000351631
 2765 1 0.0005 2500 0.0108347 0.00366782 0.000473956
 3490 1 0.0005 2500 0.0112468 0.00379216 0.000218603
 3185 1 0.0005 2500 0.0116973 0.00384412 0.000428942
 3092 1 0.0005 2500 0.0120428 0.003691 0.000101767
 3595 1 0.0005 2500 0.0125414 0.00370984 0.000314582
 3580 1 0.0005 2500 0.0133003 0.00396163 0.00042815
 3074 1 0.0005 2500 0.013729 0.0036912 0.000121068
 3451 1 0.0005 2500 0.0141665 0.00367653 0.000362187
 3465 1 0.0005 2500 0.0147043 0.0037542 0.000349351
 3094 1 0.0005 2500 0.0151294 0.00377538 4.52236e-05
 3460 1 0.0005 2500 0.0156231 0.00382504 0.00010637
 3113 1 0.0005 2500 0.000195746 0.00417762 0.000138207
 3943 1 0.0005 2500 0.000773616 0.00409939 0.000429579
 4348 1 0.0005 2500 0.00118076 0.00402177 0.000150724
 2723 1 0.0005 2500 0.00196449 0.00403711 0.000200688
 4319 1 0.0005 2500 0.00239166 0.00418434 0.000423774
 3108 1 0.0005 2500 0.00274984 0.00438717 0.000140496
 3526 1 0.0005 2500 0.00353092 0.0043773 0.000309239
 3122 1 0.0005 2500 0.00388341 0.00405476 0.000158557
 3594 1 0.0005 2500 0.0044733 0.00413515 0.000155104
 3535 1 0.0005 2500 0.00502886 0.00441063 9.09524e-05
 4336 1 0.0005 2500 0.00538055 0.00414087 0.000344958
 4291 1 0.0005 2500 0.00592319 0.00424129 0.000221523
 3589 1 0.0005 2500 0.00637809 0.00410701 0.000379379
 6277 1 0.0005 2500 0.00695496 0.00443457 0.000292597
 4322 1 0.0005 2500 0.00731228 0.00410714 0.000170816
 3476 1 0.0005 2500 0.00789433 0.00431213 0.000372572
 3563 1 0.0005 2500 0.00834088 0.00412407 0.00025111
 4350 1 0.0005 2500 0.00892883 0.00448716 0.000229435
 3499 1 0.0005 2500 0.00920499 0.00407296 0.000185558
 4746 1 0.0005 2500 0.00943958 0.00444899 0.000414734
 3097 1 0.0005 2500 0.00977767 0.00407907 0.000485643
 3509 1 0.0005 2500 0.0101243 0.00416802 5.66543e-05
 2751 1 0.0005 2500 0.0107806 0.00412912 0.000171386
 3511 1 0.0005 2500 0.0113354 0.00428091 0.000165892
 3905 1 0.0005 2500 0.0118274 0.00420902 0.000113596
 2752 1 0.0005 2500 0.0122336 0.00409774 0.000382886
 3930 1 0.0005 2500 0.0128892 0.00445847 0.000215428
 3944 1 0.0005 2500 0.0125826 0.00411327 2.37175e-05
 4698 1 0.0005 2500 0.0135499 0.00438741 0.000349636
 3469 1 0.0005 2500 0.0139017 0.00415744 7.99799e-05
 4736 1 0.0005 2500 0.0140349 0.00440101 0.000495003
 3126 1 0.0005 2500 0.0143865 0.00403788 8.91834e-05
 3886 1 0.0005 2500 0.0148298 0.0042223 0.000227804
 3181 1 0.0005 2500 0.0153242 0.00422213 0.000154995
 3565 1 0.0005 2500 0.0157529 0.0042107 0.000410735
 3986 1 0.0005 2500 7.83341e-05 0.00458905 0.000395753
 3099 1 0.0005 2500 0.000864673 0.00452671 0.000176353
 4249 1 0.0005 2500 0.000984822 0.00499771 0.000329628
 5529 1 0.0005 2500 0.00134005 0.00468142 0.000176446
 3924 1 0.0005 2500 0.00190433 0.00450928 0.000353046
 3144 1 0.0005 2500 0.00234992 0.00467967 0.000203762
 7053 1 0.0005 2500 0.00272837 0.00495432 0.000405907
 3462 1 0.0005 2500 0.00310318 0.00462339 0.00040268
 3833 1 0.0005 2500 0.00308595 0.00496067 3.40209e-05
 4708 1 0.0005 2500 0.00357303 0.0048612 8.13246e-05
 4682 1 0.0005 2500 0.0039956 0.00452553 0.000418613
 3869 1 0.0005 2500 0.00448555 0.00461575 0.000378265
 3921 1 0.0005 2500 0.00520618 0.00493355 9.62105e-05
 4362 1 0.0005 2500 0.00553284 0.00461405 0.000298218
 5071 1 0.0005 2500 0.00592716 0.00468931 5.60419e-07
 3507 1 0.0005 2500 0.00636323 0.00458012 0.000218769
 5155 1 0.0005 2500 0.00682692 0.00488952 0.000131409
 8303 1 0.0005 2500 0.00721691 0.00497811 0.000430824
 4714 1 0.0005 2500 0.00744904 0.00453855 0.000382409
 7443 1 0.0005 2500 0.00801579 0.00472268 0.00011456
 4297 1 0.0005 2500 0.00847583 0.00454936 2.77363e-05
 7861 1 0.0005 2500 0.00837861 0.00491663 0.000398325
 5073 1 0.0005 2500 0.00908784 0.00496067 0.000229272
 3518 1 0.0005 2500 0.00958368 0.00492295 0.000352629
 3139 1 0.0005 2500 0.00981603 0.00455879 0.00010166
 4696 1 0.0005 2500 0.0102914 0.0046395 0.000233123
 4317 1 0.0005 2500 0.0109514 0.00457539 2.46848e-05
 4720 1 0.0005 2500 0.0113247 0.00476252 0.000299635
 4326 1 0.0005 2500 0.0117757 0.0045919 0.000430959
 3591 1 0.0005 2500 0.0122708 0.00458248 0.00049888
 4753 1 0.0005 2500 0.01215 0.00495419 0.000187537
 4331 1 0.0005 2500 0.0126144 0.00483734 3.96907e-05
 5156 1 0.0005 2500 0.0130207 0.00492634 0.000344486
 4607 1 0.0005 2500 0.0132989 0.00466814 2.02037e-05
 3111 1 0.0005 2500 0.0142126 0.00484686 0.000356655
 8220 1 0.0005 2500 0.0146794 0.00471213 0.000240863
 3116 1 0.0005 2500 0.015117 0.00455629 0.000463523
 3913 1 0.0005 2500 0.0152151 0.0049924 0.000239942
 3917 1 0.0005 2500 0.0157441 0.00471143 4.48161e-05
 4309 1 0.0005 2500 0.000148545 0.00506437 0.000258907
 4606 1 0.0005 2500 0.000864029 0.00546035 0.000184763
 4262 1 0.0005 2500 0.00136296 0.00544272 0.000209015
 3537 1 0.0005 2500 0.00150775 0.00503749 0.00048419
 4250 1 0.0005 2500 0.00172344 0.00513791 4.49515e-05
 4315 1 0.0005 2500 0.0022042 0.00518726 0.000172526
 3893 1 0.0005 2500 0.00304407 0.00541194 0.000245373
 6687 1 0.0005 2500 0.00354353 0.00539035 0.000244953
 4717 1 0.0005 2500 0.00404274 0.00539366 0.00022507
 5159 1 0.0005 2500 0.00430224 0.00506507 0.000497381
 5103 1 0.0005 2500 0.00454571 0.00544694 0.000144574
 3492 1 0.0005 2500 0.00476173 0.00502595 0.000305054
 7441 1 0.0005 2500 0.00502701 0.00544381 0.000374836
 4314 1 0.0005 2500 0.00549216 0.0052645 0.000337887
 4747 1 0.0005 2500 0.00595785 0.0054074 0.000450166
 4282 1 0.0005 2500 0.00628496 0.00502273 0.000437388
 4369 1 0.0005 2500 0.00643161 0.00544002 0.000204774
 7479 1 0.0005 2500 0.00605207 0.00517252 1.93367e-05
 7812 1 0.0005 2500 0.00691683 0.00535354 0.000293908
 4251 1 0.0005 2500 0.00744233 0.00546087 0.000447521
 3888 1 0.0005 2500 0.00769483 0.00505332 0.000306635
 4372 1 0.0005 2500 0.00794071 0.0054856 0.000354005
 4311 1 0.0005 2500 0.00844536 0.00540961 0.000445825
 3850 1 0.0005 2500 0.00819943 0.00520503 3.12469e-05
 5085 1 0.0005 2500 0.00884628 0.0054509 0.000127103
 6657 1 0.0005 2500 0.00930821 0.00539261 0.000349413
 7054 1 0.0005 2500 0.00987734 0.00531419 0.000455352
 7444 1 0.0005 2500 0.0100083 0.00501939 7.35139e-05
 3510 1 0.0005 2500 0.0104653 0.00510738 0.000256151
 5489 1 0.0005 2500 0.0109462 0.00506471 0.0001267
 4694 1 0.0005 2500 0.0112268 0.00531996 0.000452403
 7088 1 0.0005 2500 0.0117108 0.00514826 0.000326529
 6660 1 0.0005 2500 0.0124295 0.00533902 3.46564e-05
 4342 1 0.0005 2500 0.0121423 0.00536821 0.000467454
 5530 1 0.0005 2500 0.0125703 0.00511065 0.000455883
 5107 1 0.0005 2500 0.0129288 0.00531829 2.79122e-05
 4275 1 0.0005 2500 0.0133768 0.00536008 0.000245344
 4346 1 0.0005 2500 0.0137552 0.00503677 0.000291816
 5084 1 0.0005 2500 0.0142317 0.00527021 9.1516e-05
 4261 1 0.0005 2500 0.0147824 0.00522559 0.000148867
 7050 1 0.0005 2500 0.0156697 0.0051532 0.000371552
 4339 1 0.0005 2500 0.000368205 0.00551149 0.00022046
 7043 1 0.0005 2500 0.000200725 0.00596009 7.77519e-05
 5136 1 0.0005 2500 0.000581869 0.00592638 0.000399409
 5875 1 0.0005 2500 0.00107168 0.00589884 0.000304113
 3895 1 0.0005 2500 0.00157133 0.00588642 0.000307317
 4280 1 0.0005 2500 0.00206491 0.00581719 0.00034537
 3524 1 0.0005 2500 0.00251649 0.00562037 0.000260882
 7051 1 0.0005 2500 0.00302417 0.00585976 2.20941e-05
 7109 1 0.0005 2500 0.00352299 0.00583171 1.10762e-05
 5147 1 0.0005 2500 0.0039905 0.00599508 7.94732e-05
 5088 1 0.0005 2500 0.0054092 0.00572884 0.000172101
 6655 1 0.0005 2500 0.00508643 0.00592415 0.000500094
 7418 1 0.0005 2500 0.00580095 0.005901 0.000434967
 5876 1 0.0005 2500 0.00587559 0.0056399 1.54763e-05
 7446 1 0.0005 2500 0.00673885 0.00582034 0.000308929
 7402 1 0.0005 2500 0.00721581 0.00580128 0.00016024
 4759 1 0.0005 2500 0.0076583 0.00595214 0.000445522
 7790 1 0.0005 2500 0.00823994 0.00570334 1.81198e-05
 7802 1 0.0005 2500 0.0081557 0.00591807 0.000481907
 7061 1 0.0005 2500 0.00862205 0.00585756 0.000311881
 5877 1 0.0005 2500 0.00926024 0.00588908 0.000315046
 4216 1 0.0005 2500 0.00968104 0.00566751 0.00016137
 5022 1 0.0005 2500 0.0104106 0.00558992 0.000374116
 5415 1 0.0005 2500 0.0111144 0.00579265 0.000334357
 6887 1 0.0005 2500 0.0115329 0.00558404 0.000158447
 4371 1 0.0005 2500 0.0120354 0.00583297 0.000317712
 5491 1 0.0005 2500 0.0125271 0.00574304 0.000311694
 4248 1 0.0005 2500 0.012948 0.00553188 0.000479512
 6265 1 0.0005 2500 0.0131516 0.00580685 0.00011515
 5909 1 0.0005 2500 0.0136082 0.00596472 0.000243427
 6666 1 0.0005 2500 0.0138433 0.00552848 0.000308592
 4719 1 0.0005 2500 0.0144795 0.00553485 0.000435314
 4243 1 0.0005 2500 0.014134 0.0058912 0.000492414
 5904 1 0.0005 2500 0.0149293 0.00574113 0.000364313
 7793 1 0.0005 2500 0.0154792 0.00559416 0.000111602
 4752 1 0.0005 2500 0.0159246 0.00561178 0.000448645
 5466 1 0.0005 2500 0.000270611 0.00631711 0.000420599
 7458 1 0.0005 2500 0.000745732 0.00647228 0.00042449
 7056 1 0.0005 2500 0.00103869 0.00632734 4.62793e-05
 7035 1 0.0005 2500 0.00133068 0.00629984 0.000452258
 4998 1 0.0005 2500 0.00182366 0.0063134 0.000370291
 3950 1 0.0005 2500 0.00265112 0.00610151 0.000250751
 7449 1 0.0005 2500 0.00311563 0.00628264 0.000287097
 4669 1 0.0005 2500 0.00361402 0.00624457 0.000293241
 4997 1 0.0005 2500 0.004374 0.00636991 0.00014761
 6218 1 0.0005 2500 0.00484159 0.0061937 0.000157281
 5923 1 0.0005 2500 0.00544561 0.00624667 0.000370006
 7475 1 0.0005 2500 0.0059299 0.00638375 0.000440479
 7794 1 0.0005 2500 0.00621855 0.00609783 0.000149198
 6604 1 0.0005 2500 0.00664393 0.00631045 0.00033326
 7764 1 0.0005 2500 0.00713954 0.00628191 0.000273796
 6637 1 0.0005 2500 0.00803637 0.00616882 6.63623e-05
 4284 1 0.0005 2500 0.00826407 0.00640587 0.000474142
 8185 1 0.0005 2500 0.00858288 0.00630903 0.000101231
 7033 1 0.0005 2500 0.00892553 0.00623207 0.000456846
 7069 1 0.0005 2500 0.00952495 0.00631293 0.000174103
 6683 1 0.0005 2500 0.00984044 0.00604197 0.000451428
 6605 1 0.0005 2500 0.0101145 0.0064227 0.000259611
 6632 1 0.0005 2500 0.0103712 0.00601749 0.000118884
 7347 1 0.0005 2500 0.0106336 0.00643874 6.05781e-05
 4749 1 0.0005 2500 0.0107491 0.00611974 0.000430349
 5520 1 0.0005 2500 0.0112267 0.00625512 0.000487984
 5382 1 0.0005 2500 0.0112607 0.00640377 1.13417e-05
 7735 1 0.0005 2500 0.0116086 0.00607439 0.000221034
 4245 1 0.0005 2500 0.0119494 0.00639627 3.96346e-05
 4634 1 0.0005 2500 0.0127706 0.00613019 0.000110157
 7795 1 0.0005 2500 0.0126741 0.00649395 0.000439344
 7016 1 0.0005 2500 0.0132209 0.00630374 0.000240297
 5519 1 0.0005 2500 0.0140164 0.00634808 0.00032741
 7354 1 0.0005 2500 0.0144419 0.00613097 0.000180091
 8182 1 0.0005 2500 0.0148484 0.00634026 0.000383866
 5498 1 0.0005 2500 0.0152403 0.00609402 0.000194964
 6654 1 0.0005 2500 0.0157098 0.00604186 3.13783e-05
 9315 1 0.0005 2500 0.000373781 0.0068063 0.000426529
 9341 1 0.0005 2500 0.00115153 0.00676052 0.00037819
 7416 1 0.0005 2500 0.00148176 0.00656641 5.70018e-05
 6642 1 0.0005 2500 0.00195592 0.00679258 0.00047354
 7766 1 0.0005 2500 0.00200956 0.00660852 1.2046e-05
 8181 1 0.0005 2500 0.00240559 0.0069168 0.000275242
 7457 1 0.0005 2500 0.00271924 0.00655789 0.000442676
 8189 1 0.0005 2500 0.00298784 0.006895 0.000190051
 7456 1 0.0005 2500 0.00345068 0.00670685 0.00019636
 5117 1 0.0005 2500 0.00392483 0.00658375 9.75724e-05
 6682 1 0.0005 2500 0.00423818 0.00674093 0.000453988
 9023 1 0.0005 2500 0.0044538 0.00696324 5.13968e-06
 7071 1 0.0005 2500 0.00473471 0.00667772 0.000305878
 7026 1 0.0005 2500 0.00516771 0.00656442 8.12298e-05
 8569 1 0.0005 2500 0.00524793 0.00684654 0.000485988
 7381 1 0.0005 2500 0.00563413 0.0067034 0.000195102
 6998 1 0.0005 2500 0.00610567 0.00683114 0.000303546
 5140 1 0.0005 2500 0.00698984 0.00675385 0.000204255
 7761 1 0.0005 2500 0.00657196 0.00678377 0.00047716
 4994 1 0.0005 2500 0.00739148 0.0066579 0.000485944
 7770 1 0.0005 2500 0.0078381 0.0065773 0.000276935
 8956 1 0.0005 2500 0.008344 0.00691893 0.000354776
 8568 1 0.0005 2500 0.00879944 0.00674623 0.000242809
 8158 1 0.0005 2500 0.00928884 0.00672043 0.00034213
 7782 1 0.0005 2500 0.00977305 0.00678711 0.000237007
 8647 1 0.0005 2500 0.0101822 0.00691065 0.000496276
 6285 1 0.0005 2500 0.0105783 0.00691823 0.00019071
 3875 1 0.0005 2500 0.0109842 0.00666491 0.00033589
 8912 1 0.0005 2500 0.0113472 0.00692247 0.000101145
 6607 1 0.0005 2500 0.0115937 0.00656433 0.000347908
 7008 1 0.0005 2500 0.0118527 0.00699532 0.000131811
 8133 1 0.0005 2500 0.0121765 0.00669683 0.000367901
 6281 1 0.0005 2500 0.0125554 0.00694627 0.000157622
 6994 1 0.0005 2500 0.0129606 0.00667031 1.66297e-05
 8119 1 0.0005 2500 0.013115 0.00672449 0.000488807
 8544 1 0.0005 2500 0.0137711 0.00682883 9.35201e-05
 4274 1 0.0005 2500 0.0135856 0.00655709 0.000469858
 7414 1 0.0005 2500 0.0142555 0.00670699 7.44435e-05
 4666 1 0.0005 2500 0.0147052 0.0068149 0.0004477
 7425 1 0.0005 2500 0.014884 0.00698639 1.34789e-05
 8187 1 0.0005 2500 0.015295 0.00658482 0.000273099
 4705 1 0.0005 2500 0.0158504 0.00658284 0.000369107
 8566 1 0.0005 2500 0.000397809 0.00731286 0.000386279
 6247 1 0.0005 2500 0.000833613 0.00711919 0.000236093
 7380 1 0.0005 2500 0.0013997 0.00735118 0.000235777
 7849 1 0.0005 2500 0.00171307 0.00700952 4.75806e-05
 7410 1 0.0005 2500 0.00186279 0.00730841 0.000419287
 8924 1 0.0005 2500 0.00235173 0.00739147 0.000126623
 8135 1 0.0005 2500 0.00284817 0.00737502 0.000185214
 7038 1 0.0005 2500 0.00338446 0.00711815 0.000472642
 6872 1 0.0005 2500 0.00367566 0.00744468 0.000230515
 9309 1 0.0005 2500 0.00396943 0.00707996 4.68564e-05
 8926 1 0.0005 2500 0.00435268 0.00722628 0.00041808
 7379 1 0.0005 2500 0.00495775 0.0070865 0.000116115
 9020 1 0.0005 2500 0.00574334 0.00717491 0.000320286
 8885 1 0.0005 2500 0.00653102 0.00724291 0.000276459
 7039 1 0.0005 2500 0.0070293 0.00725335 0.000237082
 9310 1 0.0005 2500 0.00751043 0.00712996 0.000180548
 8172 1 0.0005 2500 0.00798429 0.00705996 3.76092e-05
 9312 1 0.0005 2500 0.00805897 0.00736031 0.000430175
 7335 1 0.0005 2500 0.00856871 0.00732254 0.000163623
 9071 1 0.0005 2500 0.00904619 0.00717872 0.000198821
 9335 1 0.0005 2500 0.00947302 0.00721124 0.000457015
 8911 1 0.0005 2500 0.0099744 0.00722439 0.000102165
 8948 1 0.0005 2500 0.0104467 0.00737687 4.14868e-05
 6965 1 0.0005 2500 0.0109695 0.00724226 0.000172328
 8613 1 0.0005 2500 0.0116831 0.00740167 0.000368089
 7747 1 0.0005 2500 0.012122 0.00742429 0.000129848
 8162 1 0.0005 2500 0.0130008 0.00715154 0.00025378
 7009 1 0.0005 2500 0.0134865 0.00716341 0.000370976
 8614 1 0.0005 2500 0.0139711 0.00725803 0.000294019
 8168 1 0.0005 2500 0.01445 0.00716643 0.000183837
 6649 1 0.0005 2500 0.0149449 0.00725161 0.000489631
 8178 1 0.0005 2500 0.0153975 0.0070453 0.00043862
 9314 1 0.0005 2500 0.0158138 0.00703409 0.000157239
 7368 1 0.0005 2500 0.00101335 0.00778104 7.80846e-05
 9013 1 0.0005 2500 0.00169138 0.00781402 0.000269959
 7001 1 0.0005 2500 0.00494876 0.0075707 0.00799044
 9075 1 0.0005 2500 0.00533905 0.00766802 0.000307971
 7638 1 0.0005 2500 0.00664202 0.00765928 2.07359e-05
 8628 1 0.0005 2500 0.00914101 0.00765445 0.000319711
 9155 1 0.0005 2500 0.0097985 0.00768193 3.95452e-06
 7397 1 0.0005 2500 0.0102029 0.00764635 0.000384972
 7010 1 0.0005 2500 0.011026 0.00777802 0.000125361
 9305 1 0.0005 2500 0.0127032 0.00751295 7.85225e-05
 5826 1 0.0005 2500 0.0132771 0.00761741 0.000374981
 9000 1 0.0005 2500 0.0144592 0.00767897 0.000332087
 9184 1 0.0005 2500 0.0151845 0.00767823 0.000344685
 7733 1 0.0005 2500 0.015657 0.00746688 0.000508782
 8132 1 0.0005 2500 0.0005706 0.0079111 0.000270215
 1 2 0.0005 2500 0.000394338 0.00025 0.00075
 17 2 0.0005 2500 0.00082735 0.00025 0.0005
 33 2 0.0005 2500 0.00126036 0.00025 0.00075
 49 2 0.0005 2500 0.00169338 0.00025 0.0005
 65 2 0.0005 2500 0.00212639 0.00025 0.00075
 81 2 0.0005 2500 0.0025594 0.00025 0.0005
 97 2 0.0005 2500 0.00299241 0.00025 0.00075
 113 2 0.0005 2500 0.00342543 0.00025 0.0005