 sphere data

        2   atoms
        2   atom types

 -0.5 0.5 xlo xhi
 -0.5 0.5  ylo yhi
 -0.5 0.5 zlo zhi

 Atoms

 1 1 0.005 2500 0.1 0.2 0.1
 2 1 0.005 2500 -0.1 0.2 -0.1
