 sphere data

        17562    atoms
        1    atom types

 0.0 0.09  xlo xhi
 0.0 0.5  ylo yhi
 0.0 0.008  zlo zhi

 Atoms

 1 1 0.001545 1150.00041279 0.000825678 0.000772427 0.000772485
 2 1 0.001545 1150.00041279 0.00236946 0.000772498 0.000833966
 3 1 0.001545 1150.00041279 0.00411663 0.00077241 0.000772484
 294 1 0.001545 1150.00041279 0.00689574 0.000772443 0.000772493
 4 1 0.001545 1150.00041279 0.00844056 0.000772493 0.000795164
 5 1 0.001545 1150.00041279 0.00998538 0.000772488 0.000772492
 7 1 0.001545 1150.00041279 0.0121502 0.000772451 0.000772462
 297 1 0.001545 1150.00041279 0.0136791 0.000772468 0.000994525
 299 1 0.001545 1150.00041279 0.0159516 0.000772437 0.000772412
 9 1 0.001545 1150.00041279 0.0175005 0.000772449 0.000776395
 10 1 0.001545 1150.00041279 0.0190464 0.000772498 0.000772512
 11 1 0.001545 1150.00041279 0.0218581 0.000772497 0.000772498
 12 1 0.001545 1150.00041279 0.0234031 0.000772369 0.000772492
 17 1 0.001545 1150.00041279 0.025285 0.000772495 0.000772489
 20 1 0.001545 1150.00041279 0.0286355 0.000772411 0.000776733
 21 1 0.001545 1150.00041279 0.0301805 0.000772459 0.000772488
 25 1 0.001545 1150.00041279 0.0325877 0.000772424 0.000772469
 28 1 0.001545 1150.00041279 0.0341326 0.000776079 0.000775791
 34 1 0.001545 1150.00041279 0.0356776 0.000772486 0.000772539
 36 1 0.001545 1150.00041279 0.0372218 0.000818636 0.000772442
 37 1 0.001545 1150.00041279 0.0387661 0.000772594 0.000772485
 40 1 0.001545 1150.00041279 0.0418011 0.000772443 0.000772473
 330 1 0.001545 1150.00041279 0.0433954 0.000772498 0.000772527
 41 1 0.001545 1150.00041279 0.0451948 0.000772566 0.000772404
 331 1 0.001545 1150.00041279 0.0468018 0.000772477 0.00077514
 42 1 0.001545 1150.00041279 0.0483576 0.000772455 0.000772587
 852 1 0.001545 1150.00041279 0.0499026 0.000772481 0.0007725
 43 1 0.001545 1150.00041279 0.0514487 0.000772497 0.000772486
 2371 1 0.001545 1150.00041279 0.0536165 0.000772469 0.000772496
 626 1 0.001545 1150.00041279 0.0551615 0.000772482 0.000772646
 623 1 0.001545 1150.00041279 0.0567064 0.000772415 0.000772474
 917 1 0.001545 1150.00041279 0.0588083 0.000772445 0.00104357
 44 1 0.001545 1150.00041279 0.0603454 0.000772486 0.000887717
 45 1 0.001545 1150.00041279 0.061886 0.000772456 0.000772481
 334 1 0.001545 1150.00041279 0.0638115 0.000772498 0.000772507
 1789 1 0.001545 1150.00041279 0.0653836 0.000772314 0.000814
 46 1 0.001545 1150.00041279 0.066928 0.000772428 0.000772459
 337 1 0.001545 1150.00041279 0.0684729 0.000772561 0.000772408
 47 1 0.001545 1150.00041279 0.0700179 0.000772497 0.000772495
 338 1 0.001545 1150.00041279 0.0715629 0.000772483 0.000772453
 48 1 0.001545 1150.00041279 0.0731079 0.000772498 0.000772513
 49 1 0.001545 1150.00041279 0.0746528 0.000772476 0.000772443
 340 1 0.001545 1150.00041279 0.0766181 0.000772498 0.000772516
 50 1 0.001545 1150.00041279 0.079305 0.000772498 0.00104102
 341 1 0.001545 1150.00041279 0.0820272 0.000772471 0.000772443
 54 1 0.001545 1150.00041279 0.0843137 0.000772477 0.000772474
 345 1 0.001545 1150.00041279 0.0858587 0.000772477 0.000772472
 55 1 0.001545 1150.00041279 0.0874037 0.000772477 0.000772463
 58 1 0.001545 1150.00041279 0.0892099 0.000772437 0.000772859
 293 1 0.001545 1150.00041279 0.00550616 0.00144772 0.000772499
 6 1 0.001545 1150.00041279 0.0110678 0.00187489 0.00077631
 298 1 0.001545 1150.00041279 0.0147945 0.00181816 0.00077243
 16 1 0.001545 1150.00041279 0.0242908 0.00203679 0.000772457
 24 1 0.001545 1150.00041279 0.0313842 0.001741 0.00077239
 38 1 0.001545 1150.00041279 0.0402836 0.00106245 0.000772495
 797 1 0.001545 1150.00041279 0.0525343 0.00187504 0.000772465
 1497 1 0.001545 1150.00041279 0.0577746 0.00188853 0.00077372
 343 1 0.001545 1150.00041279 0.0780214 0.00158941 0.000772433
 635 1 0.001545 1150.00041279 0.0806529 0.00147823 0.000772389
 291 1 0.001545 1150.00041279 0.000772497 0.00231637 0.000786222
 292 1 0.001545 1150.00041279 0.00325135 0.00205228 0.00077249
 874 1 0.001545 1150.00041279 0.00463642 0.00271099 0.000958797
 873 1 0.001545 1150.00041279 0.00627062 0.00279029 0.000772454
 586 1 0.001545 1150.00041279 0.00766018 0.00211502 0.00077246
 1165 1 0.001545 1150.00041279 0.00932915 0.00217227 0.000772462
 993 1 0.001545 1150.00041279 0.0133132 0.00225731 0.000772488
 588 1 0.001545 1150.00041279 0.0166302 0.00216038 0.000772488
 587 1 0.001545 1150.00041279 0.0181751 0.00216229 0.000772459
 878 1 0.001545 1150.00041279 0.0196597 0.00259002 0.00077248
 300 1 0.001545 1150.00041279 0.021138 0.00214247 0.000805303
 359 1 0.001545 1150.00041279 0.0226828 0.00213906 0.000784443
 305 1 0.001545 1150.00041279 0.0255171 0.00297648 0.000772425
 308 1 0.001545 1150.00041279 0.0268595 0.00221169 0.000772465
 19 1 0.001545 1150.00041279 0.0284128 0.00230118 0.000772471
 22 1 0.001545 1150.00041279 0.0299591 0.00233761 0.000772361
 31 1 0.001545 1150.00041279 0.0327582 0.00244731 0.000772467
 29 1 0.001545 1150.00041279 0.0342974 0.00231331 0.000772464
 35 1 0.001545 1150.00041279 0.0358424 0.00230867 0.000772465
 617 1 0.001545 1150.00041279 0.0380232 0.0021395 0.000772487
 39 1 0.001545 1150.00041279 0.0395365 0.00245055 0.000772411
 1204 1 0.001545 1150.00041279 0.0410806 0.00239747 0.000772448
 2656 1 0.001545 1150.00041279 0.0425961 0.00209718 0.000772433
 1495 1 0.001545 1150.00041279 0.043829 0.00302816 0.000772523
 1496 1 0.001545 1150.00041279 0.0460912 0.00252109 0.000772467
 625 1 0.001545 1150.00041279 0.0475798 0.00210729 0.0007725
 1555 1 0.001545 1150.00041279 0.0491301 0.00210777 0.000857686
 2369 1 0.001545 1150.00041279 0.0506733 0.00211153 0.000775907
 2078 1 0.001545 1150.00041279 0.054389 0.00210938 0.000826928
 335 1 0.001545 1150.00041279 0.0559374 0.0021124 0.000772405
 1788 1 0.001545 1150.00041279 0.0591565 0.00257947 0.000772454
 1790 1 0.001545 1150.00041279 0.0609675 0.0024594 0.000772425
 976 1 0.001545 1150.00041279 0.0624896 0.00219464 0.000772415
 1791 1 0.001545 1150.00041279 0.0649311 0.00224741 0.000889352
 1207 1 0.001545 1150.00041279 0.0665269 0.00226438 0.000772446
 397 1 0.001545 1150.00041279 0.0692455 0.00211053 0.000778781
 629 1 0.001545 1150.00041279 0.0740024 0.00303355 0.000772445
 106 1 0.001545 1150.00041279 0.0752915 0.00217926 0.000775438
 632 1 0.001545 1150.00041279 0.0767961 0.00253053 0.000772474
 806 1 0.001545 1150.00041279 0.0793712 0.00233997 0.000812084
 925 1 0.001545 1150.00041279 0.0815177 0.00277185 0.000772351
 52 1 0.001545 1150.00041279 0.082866 0.00205399 0.00100436
 342 1 0.001545 1150.00041279 0.0843707 0.0023164 0.000772464
 403 1 0.001545 1150.00041279 0.0859156 0.00231708 0.000772451
 57 1 0.001545 1150.00041279 0.08746 0.00235922 0.000772487
 348 1 0.001545 1150.00041279 0.0892275 0.0023172 0.000787745
 871 1 0.001545 1150.00041279 0.000772412 0.00386123 0.000772466
 581 1 0.001545 1150.00041279 0.00211664 0.00310032 0.00080145
 875 1 0.001545 1150.00041279 0.00346182 0.00385963 0.000772465
 933 1 0.001545 1150.00041279 0.00845007 0.00344279 0.000772493
 877 1 0.001545 1150.00041279 0.0109407 0.00341459 0.000772474
 876 1 0.001545 1150.00041279 0.0124725 0.00361597 0.000772614
 1169 1 0.001545 1150.00041279 0.0140173 0.00363252 0.000772498
 1170 1 0.001545 1150.00041279 0.0155063 0.00322042 0.000772479
 881 1 0.001545 1150.00041279 0.018936 0.00396474 0.000772482
 589 1 0.001545 1150.00041279 0.0221458 0.00400165 0.000772496
 302 1 0.001545 1150.00041279 0.0235704 0.00340351 0.000772314
 309 1 0.001545 1150.00041279 0.0278967 0.00375729 0.000772483
 311 1 0.001545 1150.00041279 0.0294695 0.00380298 0.000772443
 26 1 0.001545 1150.00041279 0.0311884 0.00327344 0.000772445
 91 1 0.001545 1150.00041279 0.0335964 0.00374513 0.000772441
 323 1 0.001545 1150.00041279 0.0351396 0.00381886 0.000772343
 913 1 0.001545 1150.00041279 0.0386684 0.00372854 0.000777264
 2712 1 0.001545 1150.00041279 0.0402087 0.003849 0.000772488
 2653 1 0.001545 1150.00041279 0.0423965 0.00362948 0.000772383
 2947 1 0.001545 1150.00041279 0.045181 0.00376017 0.000924142
 2654 1 0.001545 1150.00041279 0.0467078 0.00394096 0.00077236
 2950 1 0.001545 1150.00041279 0.0481954 0.00352426 0.000772432
 2659 1 0.001545 1150.00041279 0.0517585 0.00321115 0.000772385
 2195 1 0.001545 1150.00041279 0.0533123 0.00321609 0.000772498
 2077 1 0.001545 1150.00041279 0.0549029 0.00355153 0.00103454
 1792 1 0.001545 1150.00041279 0.0578671 0.00343065 0.00077246
 3531 1 0.001545 1150.00041279 0.0597258 0.00398939 0.0010462
 918 1 0.001545 1150.00041279 0.0636896 0.00316549 0.000838779
 919 1 0.001545 1150.00041279 0.0652326 0.00375805 0.000772253
 1210 1 0.001545 1150.00041279 0.0678451 0.00325414 0.000772455
 1211 1 0.001545 1150.00041279 0.0694346 0.00387989 0.000772413
 923 1 0.001545 1150.00041279 0.0709656 0.00367279 0.000772477
 1209 1 0.001545 1150.00041279 0.0725096 0.00372847 0.000772369
 1213 1 0.001545 1150.00041279 0.0757484 0.00368293 0.000772423
 924 1 0.001545 1150.00041279 0.0786979 0.00382895 0.000772481
 1216 1 0.001545 1150.00041279 0.0802292 0.00362408 0.000772451
 693 1 0.001545 1150.00041279 0.0831866 0.0035474 0.000772474
 638 1 0.001545 1150.00041279 0.0851425 0.00365475 0.000773848
 406 1 0.001545 1150.00041279 0.0883911 0.00361603 0.00077236
 1277 1 0.001545 1150.00041279 0.0022263 0.00478724 0.000772431
 1164 1 0.001545 1150.00041279 0.00484583 0.00454618 0.000772408
 642 1 0.001545 1150.00041279 0.00649666 0.00431863 0.000772468
 1747 1 0.001545 1150.00041279 0.00830421 0.00498086 0.000772486
 1166 1 0.001545 1150.00041279 0.00970567 0.00433755 0.000871443
 1516 1 0.001545 1150.00041279 0.0118186 0.00501577 0.000772464
 1171 1 0.001545 1150.00041279 0.0152392 0.00474211 0.000772497
 1227 1 0.001545 1150.00041279 0.0167809 0.0046396 0.000772476
 648 1 0.001545 1150.00041279 0.0206059 0.00412743 0.000772465
 13 1 0.001545 1150.00041279 0.0244055 0.00470221 0.000825895
 595 1 0.001545 1150.00041279 0.0259312 0.00446489 0.000772431
 320 1 0.001545 1150.00041279 0.0306988 0.00473874 0.000773844
 326 1 0.001545 1150.00041279 0.0359697 0.00508991 0.0010589
 328 1 0.001545 1150.00041279 0.0371811 0.00414666 0.000772464
 3526 1 0.001545 1150.00041279 0.041411 0.00481929 0.000772499
 4165 1 0.001545 1150.00041279 0.0431901 0.00495508 0.000776066
 2372 1 0.001545 1150.00041279 0.049118 0.00476348 0.000772489
 2138 1 0.001545 1150.00041279 0.0505415 0.00416292 0.000772495
 3877 1 0.001545 1150.00041279 0.0523397 0.00462534 0.000994569
 2081 1 0.001545 1150.00041279 0.0548083 0.00507508 0.000772455
 3241 1 0.001545 1150.00041279 0.0569356 0.00466313 0.000772439
 3532 1 0.001545 1150.00041279 0.0584735 0.00485164 0.00077248
 1848 1 0.001545 1150.00041279 0.0611995 0.00436322 0.000772411
 2721 1 0.001545 1150.00041279 0.0627442 0.00438552 0.000772469
 1498 1 0.001545 1150.00041279 0.0666876 0.00427737 0.000784602
 1501 1 0.001545 1150.00041279 0.074804 0.00490557 0.000772467
 926 1 0.001545 1150.00041279 0.0818295 0.00428434 0.000818879
 694 1 0.001545 1150.00041279 0.0840976 0.00479528 0.000772391
 1274 1 0.001545 1150.00041279 0.0859086 0.00499644 0.000772475
 983 1 0.001545 1150.00041279 0.0874454 0.0048377 0.000772495
 1161 1 0.001545 1150.00041279 0.000821275 0.00538869 0.000998518
 1452 1 0.001545 1150.00041279 0.00360592 0.00542573 0.00104805
 1453 1 0.001545 1150.00041279 0.00530003 0.00602278 0.000772458
 1221 1 0.001545 1150.00041279 0.00698411 0.00578471 0.000772491
 1864 1 0.001545 1150.00041279 0.00989253 0.00586792 0.000772443
 1457 1 0.001545 1150.00041279 0.0137502 0.00515423 0.00077245
 997 1 0.001545 1150.00041279 0.0160988 0.00602577 0.000784085
 1869 1 0.001545 1150.00041279 0.0181361 0.00545521 0.000772485
 1463 1 0.001545 1150.00041279 0.0196784 0.005363 0.000772476
 590 1 0.001545 1150.00041279 0.0214848 0.0053981 0.000773317
 303 1 0.001545 1150.00041279 0.0262046 0.0059855 0.000772499
 307 1 0.001545 1150.00041279 0.0278403 0.00530116 0.00077245
 27 1 0.001545 1150.00041279 0.0293591 0.00558414 0.000772398
 314 1 0.001545 1150.00041279 0.0315011 0.00605896 0.000772465
 324 1 0.001545 1150.00041279 0.0330198 0.0057756 0.000772453
 618 1 0.001545 1150.00041279 0.0344551 0.00520394 0.000772457
 1493 1 0.001545 1150.00041279 0.0373407 0.00574201 0.000772477
 2652 1 0.001545 1150.00041279 0.038881 0.00562204 0.000772434
 3236 1 0.001545 1150.00041279 0.0403784 0.00600195 0.000772495
 2948 1 0.001545 1150.00041279 0.0447115 0.00522419 0.000772417
 2661 1 0.001545 1150.00041279 0.0476374 0.00515937 0.000967724
 4110 1 0.001545 1150.00041279 0.0511484 0.00558375 0.0007725
 2660 1 0.001545 1150.00041279 0.0534052 0.0057219 0.0007725
 2709 1 0.001545 1150.00041279 0.057542 0.00608415 0.00077244
 2663 1 0.001545 1150.00041279 0.0601333 0.00548128 0.000772379
 3821 1 0.001545 1150.00041279 0.0617188 0.00581686 0.000837301
 4400 1 0.001545 1150.00041279 0.0632623 0.00584096 0.000772471
 2082 1 0.001545 1150.00041279 0.0646518 0.00518204 0.000920602
 1502 1 0.001545 1150.00041279 0.0661762 0.0057352 0.000772477
 3012 1 0.001545 1150.00041279 0.0690256 0.0053697 0.000772423
 1499 1 0.001545 1150.00041279 0.0705639 0.00516463 0.00077243
 1500 1 0.001545 1150.00041279 0.0721492 0.0052308 0.000772462
 2955 1 0.001545 1150.00041279 0.0735707 0.00583604 0.00077367
 1214 1 0.001545 1150.00041279 0.0763277 0.00516161 0.000772499
 1852 1 0.001545 1150.00041279 0.0789998 0.00534394 0.000798538
 2083 1 0.001545 1150.00041279 0.0805309 0.00513922 0.00077258
 637 1 0.001545 1150.00041279 0.0827438 0.00553963 0.000772419
 696 1 0.001545 1150.00041279 0.0889064 0.00534641 0.000772274
 1219 1 0.001545 1150.00041279 0.00077246 0.00691618 0.000772471
 1509 1 0.001545 1150.00041279 0.0022301 0.00633204 0.000791988
 1802 1 0.001545 1150.00041279 0.00412565 0.00702668 0.000772363
 1746 1 0.001545 1150.00041279 0.00848945 0.00651469 0.000772458
 2621 1 0.001545 1150.00041279 0.0128774 0.00642876 0.000800634
 1343 1 0.001545 1150.00041279 0.014245 0.00714781 0.000772445
 2341 1 0.001545 1150.00041279 0.0173425 0.00694236 0.000772478
 1753 1 0.001545 1150.00041279 0.0197228 0.00708129 0.00077241
 1755 1 0.001545 1150.00041279 0.0212647 0.00693637 0.000772448
 1347 1 0.001545 1150.00041279 0.022806 0.00683005 0.000772498
 301 1 0.001545 1150.00041279 0.0242324 0.0062365 0.000772499
 596 1 0.001545 1150.00041279 0.0281088 0.00682251 0.000772499
 371 1 0.001545 1150.00041279 0.0301957 0.00687906 0.00087372
 620 1 0.001545 1150.00041279 0.0345519 0.00691574 0.000772481
 914 1 0.001545 1150.00041279 0.0360663 0.00661387 0.00082403
 2360 1 0.001545 1150.00041279 0.0418969 0.00628657 0.000775801
 3529 1 0.001545 1150.00041279 0.0434271 0.00647913 0.00086593
 4108 1 0.001545 1150.00041279 0.0449449 0.00675141 0.000772481
 3588 1 0.001545 1150.00041279 0.0464609 0.00645337 0.00077245
 3817 1 0.001545 1150.00041279 0.0491798 0.00681359 0.000772369
 3227 1 0.001545 1150.00041279 0.0521103 0.00690606 0.000772454
 3233 1 0.001545 1150.00041279 0.0550553 0.0066003 0.000772401
 4399 1 0.001545 1150.00041279 0.0590774 0.00660921 0.000772498
 2952 1 0.001545 1150.00041279 0.0653968 0.00706322 0.0008987
 3244 1 0.001545 1150.00041279 0.0670463 0.00701184 0.000772387
 3592 1 0.001545 1150.00041279 0.0685825 0.00684956 0.000796986
 2722 1 0.001545 1150.00041279 0.0701134 0.00664248 0.000772489
 2665 1 0.001545 1150.00041279 0.0746193 0.00697084 0.000772494
 1504 1 0.001545 1150.00041279 0.0776884 0.00618226 0.000772414
 2084 1 0.001545 1150.00041279 0.0805489 0.006684 0.000772454
 1332 1 0.001545 1150.00041279 0.0825693 0.00707472 0.00077256
 1506 1 0.001545 1150.00041279 0.083986 0.00645832 0.000772472
 1796 1 0.001545 1150.00041279 0.0855305 0.00649435 0.000790335
 461 1 0.001545 1150.00041279 0.0892275 0.00685759 0.000772429
 2322 1 0.001545 1150.00041279 0.00277531 0.00777745 0.000772491
 2034 1 0.001545 1150.00041279 0.00571872 0.00747113 0.00110949
 1806 1 0.001545 1150.00041279 0.00722481 0.00740217 0.00077243
 1752 1 0.001545 1150.00041279 0.00862304 0.00805924 0.000772488
 1748 1 0.001545 1150.00041279 0.0100237 0.00740726 0.000772426
 1518 1 0.001545 1150.00041279 0.0115588 0.00723335 0.00077248
 2622 1 0.001545 1150.00041279 0.0129198 0.00797292 0.0007725
 2332 1 0.001545 1150.00041279 0.0157422 0.00752894 0.000772446
 1578 1 0.001545 1150.00041279 0.0237601 0.00804403 0.000826856
 1172 1 0.001545 1150.00041279 0.0251861 0.00745195 0.000772487
 597 1 0.001545 1150.00041279 0.0267297 0.00751886 0.000772456
 378 1 0.001545 1150.00041279 0.0291231 0.00798761 0.000787672
 902 1 0.001545 1150.00041279 0.0315572 0.00760285 0.00077244
 381 1 0.001545 1150.00041279 0.0331015 0.00765104 0.00077248
 2364 1 0.001545 1150.00041279 0.0355893 0.00808247 0.000772432
 2423 1 0.001545 1150.00041279 0.0378049 0.00722052 0.000772402
 2944 1 0.001545 1150.00041279 0.0394587 0.00724338 0.000772499
 3876 1 0.001545 1150.00041279 0.0423392 0.00776687 0.000772443
 3820 1 0.001545 1150.00041279 0.0439471 0.00793098 0.0007725
 3221 1 0.001545 1150.00041279 0.0459602 0.00791585 0.000772436
 4107 1 0.001545 1150.00041279 0.0474914 0.0077101 0.000772451
 2766 1 0.001545 1150.00041279 0.0503596 0.00781103 0.000772467
 3632 1 0.001545 1150.00041279 0.0537982 0.00749845 0.000772369
 3293 1 0.001545 1150.00041279 0.0564967 0.00722036 0.00082604
 3524 1 0.001545 1150.00041279 0.0599456 0.00789605 0.000772339
 2939 1 0.001545 1150.00041279 0.0619628 0.00734107 0.000772458
 4113 1 0.001545 1150.00041279 0.0638644 0.00725173 0.000956631
 3823 1 0.001545 1150.00041279 0.0698656 0.00816641 0.000829611
 3824 1 0.001545 1150.00041279 0.0714043 0.0074323 0.00108337
 1503 1 0.001545 1150.00041279 0.0729048 0.00723016 0.000772444
 3013 1 0.001545 1150.00041279 0.0756965 0.00807953 0.00077243
 3071 1 0.001545 1150.00041279 0.0776303 0.00772431 0.000847511
 2956 1 0.001545 1150.00041279 0.079437 0.00775672 0.000772441
 2433 1 0.001545 1150.00041279 0.0813402 0.00801085 0.000772447
 1564 1 0.001545 1150.00041279 0.0838114 0.00799332 0.000789537
 1275 1 0.001545 1150.00041279 0.0862425 0.00814014 0.000772484
 927 1 0.001545 1150.00041279 0.0877034 0.00763737 0.000772459
 1741 1 0.001545 1150.00041279 0.000965953 0.00844889 0.000772409
 1511 1 0.001545 1150.00041279 0.00380393 0.00893022 0.000772476
 2038 1 0.001545 1150.00041279 0.00534892 0.00893281 0.000772465
 1809 1 0.001545 1150.00041279 0.00728118 0.00894607 0.000772396
 2336 1 0.001545 1150.00041279 0.0104978 0.00887759 0.000776443
 2342 1 0.001545 1150.00041279 0.0149938 0.00888048 0.00077239
 2624 1 0.001545 1150.00041279 0.0184064 0.00826514 0.000772401
 1815 1 0.001545 1150.00041279 0.0206155 0.00830459 0.0010782
 2333 1 0.001545 1150.00041279 0.0221274 0.00821803 0.000772384
 653 1 0.001545 1150.00041279 0.0259012 0.0087935 0.00104773
 710 1 0.001545 1150.00041279 0.0278361 0.00884215 0.000772488
 672 1 0.001545 1150.00041279 0.0322876 0.00896424 0.000772452
 1021 1 0.001545 1150.00041279 0.034271 0.00890287 0.000772492
 3294 1 0.001545 1150.00041279 0.0369233 0.00895371 0.000772449
 2362 1 0.001545 1150.00041279 0.0384886 0.00860286 0.000866118
 3528 1 0.001545 1150.00041279 0.0409137 0.00843096 0.000772422
 4395 1 0.001545 1150.00041279 0.0430092 0.00915898 0.000772479
 2943 1 0.001545 1150.00041279 0.0489048 0.00833383 0.000772464
 3803 1 0.001545 1150.00041279 0.0515949 0.00873886 0.000772388
 4094 1 0.001545 1150.00041279 0.0531306 0.0088896 0.000847866
 4106 1 0.001545 1150.00041279 0.0553088 0.00820657 0.000772409
 3055 1 0.001545 1150.00041279 0.05757 0.00840934 0.000772461
 3633 1 0.001545 1150.00041279 0.0589593 0.0090852 0.000772447
 3346 1 0.001545 1150.00041279 0.0613829 0.00877307 0.000772476
 4105 1 0.001545 1150.00041279 0.0629823 0.00850666 0.000772489
 3583 1 0.001545 1150.00041279 0.0647927 0.00848232 0.0010608
 4398 1 0.001545 1150.00041279 0.0663062 0.00836793 0.000772459
 4401 1 0.001545 1150.00041279 0.0683352 0.00837251 0.00087687
 4228 1 0.001545 1150.00041279 0.0718467 0.00887958 0.000772484
 3535 1 0.001545 1150.00041279 0.0739533 0.00836492 0.00077246
 2667 1 0.001545 1150.00041279 0.0768799 0.00907275 0.000772494
 3246 1 0.001545 1150.00041279 0.0785114 0.00899302 0.000813879
 2088 1 0.001545 1150.00041279 0.0802284 0.00908356 0.000772453
 2666 1 0.001545 1150.00041279 0.0849696 0.00901574 0.00077276
 1911 1 0.001545 1150.00041279 0.0878893 0.00917005 0.000828501
 1218 1 0.001545 1150.00041279 0.0892275 0.00839891 0.000877801
 2032 1 0.001545 1150.00041279 0.000772462 0.00998168 0.000772488
 2381 1 0.001545 1150.00041279 0.00229035 0.00924432 0.000772481
 2679 1 0.001545 1150.00041279 0.00625575 0.0101836 0.000772464
 2042 1 0.001545 1150.00041279 0.00904946 0.0095442 0.000772373
 2912 1 0.001545 1150.00041279 0.0119999 0.00923908 0.000772439
 2337 1 0.001545 1150.00041279 0.0135361 0.00938799 0.000840938
 1526 1 0.001545 1150.00041279 0.0169075 0.00927647 0.000772474
 1759 1 0.001545 1150.00041279 0.0183503 0.00982897 0.000776718
 1758 1 0.001545 1150.00041279 0.0198823 0.00962967 0.0007724
 2050 1 0.001545 1150.00041279 0.0214263 0.00959403 0.000815576
 2103 1 0.001545 1150.00041279 0.0229687 0.00951393 0.000773789
 1756 1 0.001545 1150.00041279 0.0245099 0.0094061 0.000772478
 886 1 0.001545 1150.00041279 0.0268193 0.0100053 0.000772487
 23 1 0.001545 1150.00041279 0.0296467 0.00944098 0.00077247
 322 1 0.001545 1150.00041279 0.0311032 0.00995633 0.000772449
 2127 1 0.001545 1150.00041279 0.0355826 0.00968779 0.000997561
 2651 1 0.001545 1150.00041279 0.0397659 0.00946701 0.000772497
 2940 1 0.001545 1150.00041279 0.0413436 0.00991493 0.000772498
 3516 1 0.001545 1150.00041279 0.0451828 0.009251 0.000772449
 3807 1 0.001545 1150.00041279 0.0478737 0.00948443 0.000772498
 4093 1 0.001545 1150.00041279 0.0506563 0.00996597 0.000788304
 3865 1 0.001545 1150.00041279 0.0546666 0.00958786 0.00102975
 3517 1 0.001545 1150.00041279 0.056217 0.00945513 0.000829948
 3229 1 0.001545 1150.00041279 0.0576793 0.00995044 0.000772444
 4383 1 0.001545 1150.00041279 0.0602919 0.00986694 0.00077248
 3057 1 0.001545 1150.00041279 0.0625338 0.00998509 0.000772477
 3116 1 0.001545 1150.00041279 0.0640844 0.00982479 0.000772463
 4161 1 0.001545 1150.00041279 0.0657206 0.00979763 0.000772483
 4687 1 0.001545 1150.00041279 0.0673207 0.00953308 0.000772426
 4689 1 0.001545 1150.00041279 0.0690355 0.00974565 0.000772455
 4115 1 0.001545 1150.00041279 0.0705937 0.00980434 0.000772363
 3825 1 0.001545 1150.00041279 0.0731612 0.00969141 0.000772479
 4692 1 0.001545 1150.00041279 0.0750297 0.00947317 0.000772408
 2377 1 0.001545 1150.00041279 0.0819467 0.00943126 0.00081131
 2376 1 0.001545 1150.00041279 0.083479 0.00962431 0.000772385
 2548 1 0.001545 1150.00041279 0.0863786 0.00967913 0.000772461
 2085 1 0.001545 1150.00041279 0.0892275 0.00994027 0.000772477
 1749 1 0.001545 1150.00041279 0.00318931 0.0105007 0.000772442
 1460 1 0.001545 1150.00041279 0.00473394 0.0105302 0.000772402
 2911 1 0.001545 1150.00041279 0.00777504 0.0103988 0.000952335
 2620 1 0.001545 1150.00041279 0.00905874 0.0112405 0.000777649
 3202 1 0.001545 1150.00041279 0.0103658 0.0104169 0.000772497
 2626 1 0.001545 1150.00041279 0.0126404 0.010645 0.000772499
 1819 1 0.001545 1150.00041279 0.0144108 0.0110957 0.000772485
 2919 1 0.001545 1150.00041279 0.0157051 0.010252 0.000772492
 1761 1 0.001545 1150.00041279 0.0171486 0.0108025 0.000773583
 2051 1 0.001545 1150.00041279 0.0191695 0.0111389 0.000772483
 1586 1 0.001545 1150.00041279 0.020704 0.010959 0.000772473
 1002 1 0.001545 1150.00041279 0.0222935 0.0109156 0.000772496
 1757 1 0.001545 1150.00041279 0.0238338 0.0107953 0.000772456
 940 1 0.001545 1150.00041279 0.0254259 0.0106726 0.000772451
 967 1 0.001545 1150.00041279 0.0283146 0.0103944 0.000772434
 316 1 0.001545 1150.00041279 0.0298093 0.0109773 0.000772475
 1778 1 0.001545 1150.00041279 0.0325672 0.0104836 0.000772482
 2357 1 0.001545 1150.00041279 0.0341098 0.0104377 0.000845896
 2128 1 0.001545 1150.00041279 0.0354458 0.0112102 0.0007725
 2647 1 0.001545 1150.00041279 0.0369 0.0104985 0.000772497
 3525 1 0.001545 1150.00041279 0.0384258 0.0102467 0.00077248
 2648 1 0.001545 1150.00041279 0.0397698 0.011012 0.000773217
 2697 1 0.001545 1150.00041279 0.0425954 0.0108171 0.000850215
 4162 1 0.001545 1150.00041279 0.0440496 0.0103011 0.000772393
 3219 1 0.001545 1150.00041279 0.0462725 0.0103462 0.000772446
 3797 1 0.001545 1150.00041279 0.0476725 0.0110163 0.000772486
 3799 1 0.001545 1150.00041279 0.0491638 0.0103649 0.000772462
 3801 1 0.001545 1150.00041279 0.0519153 0.0108871 0.000772358
 3856 1 0.001545 1150.00041279 0.0533852 0.0104115 0.000772352
 4092 1 0.001545 1150.00041279 0.056518 0.0109694 0.0007725
 3519 1 0.001545 1150.00041279 0.061357 0.010986 0.000772471
 3232 1 0.001545 1150.00041279 0.065082 0.0111974 0.000913223
 5036 1 0.001545 1150.00041279 0.0667352 0.0109628 0.000772492
 5272 1 0.001545 1150.00041279 0.0682876 0.0110975 0.000772499
 5561 1 0.001545 1150.00041279 0.0698345 0.01115 0.000772499
 4170 1 0.001545 1150.00041279 0.0714939 0.01106 0.000772499
 6140 1 0.001545 1150.00041279 0.0745479 0.010941 0.000772434
 4983 1 0.001545 1150.00041279 0.0762198 0.0104978 0.000772303
 4111 1 0.001545 1150.00041279 0.0777571 0.0103445 0.000772485
 5273 1 0.001545 1150.00041279 0.0793019 0.0103198 0.000772422
 3537 1 0.001545 1150.00041279 0.0808357 0.0105041 0.000772486
 3536 1 0.001545 1150.00041279 0.0822621 0.0110974 0.000772488
 2087 1 0.001545 1150.00041279 0.0848493 0.010556 0.000772453
 2086 1 0.001545 1150.00041279 0.0864313 0.0112232 0.000772462
 2434 1 0.001545 1150.00041279 0.0878893 0.010715 0.000824033
 2321 1 0.001545 1150.00041279 0.000772435 0.0115266 0.000772449
 2907 1 0.001545 1150.00041279 0.00229911 0.0117633 0.000772468
 1459 1 0.001545 1150.00041279 0.00392389 0.0118599 0.000772471
 2040 1 0.001545 1150.00041279 0.00546857 0.0118897 0.000772477
 2331 1 0.001545 1150.00041279 0.00700485 0.011726 0.000772494
 2629 1 0.001545 1150.00041279 0.011395 0.0115691 0.000772432
 2918 1 0.001545 1150.00041279 0.0132172 0.0120782 0.000774233
 2166 1 0.001545 1150.00041279 0.0160246 0.0120854 0.000772485
 1587 1 0.001545 1150.00041279 0.0179691 0.0121115 0.000772382
 1174 1 0.001545 1150.00041279 0.0232234 0.0122146 0.000776965
 1467 1 0.001545 1150.00041279 0.024729 0.0120202 0.00106435
 1173 1 0.001545 1150.00041279 0.0272299 0.0114946 0.000772469
 907 1 0.001545 1150.00041279 0.0312656 0.0114925 0.000798511
 2072 1 0.001545 1150.00041279 0.0327173 0.0120202 0.000828357
 1783 1 0.001545 1150.00041279 0.0342807 0.0122719 0.000772376
 2698 1 0.001545 1150.00041279 0.0368386 0.0120423 0.000772447
 3284 1 0.001545 1150.00041279 0.0385128 0.0120244 0.000772414
 2639 1 0.001545 1150.00041279 0.0450919 0.0114415 0.000772469
 4087 1 0.001545 1150.00041279 0.0465159 0.0120406 0.000772442
 4088 1 0.001545 1150.00041279 0.0490411 0.0119049 0.000772454
 3857 1 0.001545 1150.00041279 0.0505616 0.0116314 0.000772481
 4670 1 0.001545 1150.00041279 0.0535931 0.0119424 0.000772382
 4089 1 0.001545 1150.00041279 0.0549945 0.0112809 0.000772467
 3919 1 0.001545 1150.00041279 0.0581975 0.0114059 0.000772499
 3800 1 0.001545 1150.00041279 0.0597395 0.0113098 0.000772798
 3812 1 0.001545 1150.00041279 0.0623262 0.0122091 0.000927362
 3231 1 0.001545 1150.00041279 0.0635452 0.0112726 0.000772397
 6720 1 0.001545 1150.00041279 0.0732073 0.0117091 0.000772499
 6139 1 0.001545 1150.00041279 0.0757119 0.0119568 0.000772455
 6141 1 0.001545 1150.00041279 0.0772493 0.0118037 0.000772566
 6433 1 0.001545 1150.00041279 0.0787926 0.011777 0.000839313
 3826 1 0.001545 1150.00041279 0.0803845 0.011976 0.000902733
 3884 1 0.001545 1150.00041279 0.0837195 0.0116099 0.000772492
 3073 1 0.001545 1150.00041279 0.0851761 0.0121229 0.000815914
 2378 1 0.001545 1150.00041279 0.0878733 0.0122865 0.000772411
 1797 1 0.001545 1150.00041279 0.0892276 0.0114852 0.000772484
 2323 1 0.001545 1150.00041279 0.000772419 0.0130666 0.000896457
 2324 1 0.001545 1150.00041279 0.00229392 0.0133082 0.000780383
 2329 1 0.001545 1150.00041279 0.00671618 0.0132437 0.000772731
 3201 1 0.001545 1150.00041279 0.00829126 0.0125813 0.000798011
 2913 1 0.001545 1150.00041279 0.0100879 0.0123927 0.00077239
 2625 1 0.001545 1150.00041279 0.0145404 0.0128682 0.000883952
 1934 1 0.001545 1150.00041279 0.0189428 0.013311 0.000772382
 830 1 0.001545 1150.00041279 0.0201723 0.0123963 0.000968585
 889 1 0.001545 1150.00041279 0.0217088 0.0123068 0.00110365
 1525 1 0.001545 1150.00041279 0.0261802 0.0126281 0.000772368
 910 1 0.001545 1150.00041279 0.0277651 0.012944 0.000772491
 32 1 0.001545 1150.00041279 0.0294519 0.0124803 0.000772471
 1780 1 0.001545 1150.00041279 0.0315343 0.0130137 0.0007725
 3002 1 0.001545 1150.00041279 0.0399677 0.0125443 0.000772379
 3046 1 0.001545 1150.00041279 0.0421456 0.0124619 0.000772436
 2938 1 0.001545 1150.00041279 0.0437433 0.0123766 0.000772408
 2929 1 0.001545 1150.00041279 0.0452451 0.0131831 0.000772491
 3508 1 0.001545 1150.00041279 0.0478261 0.0128591 0.000772491
 5252 1 0.001545 1150.00041279 0.0521029 0.0124176 0.000868782
 4090 1 0.001545 1150.00041279 0.0557727 0.0126155 0.00078534
 4091 1 0.001545 1150.00041279 0.0573165 0.0126751 0.000772468
 4384 1 0.001545 1150.00041279 0.0590517 0.0126924 0.000821941
 4097 1 0.001545 1150.00041279 0.0608048 0.0124289 0.000772455
 3523 1 0.001545 1150.00041279 0.0658154 0.0125499 0.0007725
 4688 1 0.001545 1150.00041279 0.067351 0.0123797 0.00077247
 4980 1 0.001545 1150.00041279 0.0688889 0.0125275 0.000772474
 5851 1 0.001545 1150.00041279 0.0704312 0.012617 0.000788477
 6548 1 0.001545 1150.00041279 0.071976 0.012642 0.000791018
 5619 1 0.001545 1150.00041279 0.0780212 0.0131364 0.000896085
 5563 1 0.001545 1150.00041279 0.0795551 0.0132729 0.000772402
 5852 1 0.001545 1150.00041279 0.0816936 0.0127871 0.000778927
 4985 1 0.001545 1150.00041279 0.0832126 0.0130693 0.000772494
 3538 1 0.001545 1150.00041279 0.086479 0.012952 0.000772471
 2668 1 0.001545 1150.00041279 0.0892276 0.0130301 0.000772476
 2615 1 0.001545 1150.00041279 0.00383595 0.0134023 0.0007725
 2094 1 0.001545 1150.00041279 0.0053065 0.0138759 0.00077516