 Granular Flow simulation

           4  atoms
           1  atom types

   0.000000      0.2      xlo xhi
   0.000000      0.1      ylo yhi
   0.000000      0.1      zlo zhi

 Atoms

     1   1 1.50000E-03  4.65000E+03  5.0E-02  7.5E-02  5.0E-02
     2   1 1.50000E-03  3.65000E+03  9.0E-02  8.5E-02  5.0E-02
     3   1 1.50000E-03  2.65000E+03  9.1E-02  8.5E-02  5.0E-02
     4   1 1.50000E-03  1.65000E+03  1.7E-01  7.5E-02  5.0E-02

