 sphere data

        9240    atoms
        1    atom types

 0.0 0.044  xlo xhi
 0.0 0.12  ylo yhi
 0.0 0.01  zlo zhi

 Atoms

 1 1 0.0012 1000 0.000599533 0.000598009 0.000599061
 2 1 0.0012 1000 0.00271196 0.000599612 0.000599902
 3 1 0.0012 1000 0.00391143 0.00059878 0.000599032
 4 1 0.0012 1000 0.00602636 0.00059969 0.00060148
 5 1 0.0012 1000 0.00781835 0.000599694 0.000599661
 6 1 0.0012 1000 0.00902636 0.000598798 0.000599886
 7 1 0.0012 1000 0.0101897 0.000598285 0.000892485
 8 1 0.0012 1000 0.0121493 0.000599744 0.000603159
 9 1 0.0012 1000 0.013349 0.00059878 0.000599931
 10 1 0.0012 1000 0.015152 0.000597379 0.000599491
 11 1 0.0012 1000 0.0168554 0.000598503 0.000599401
 12 1 0.0012 1000 0.0185458 0.000599569 0.000599147
 13 1 0.0012 1000 0.0199671 0.000599624 0.000599884
 14 1 0.0012 1000 0.0211669 0.000597751 0.000597193
 15 1 0.0012 1000 0.0224479 0.000599111 0.000599505
 16 1 0.0012 1000 0.0236474 0.000599014 0.000609561
 17 1 0.0012 1000 0.0248463 0.000598702 0.000598754
 18 1 0.0012 1000 0.0268266 0.000599959 0.000611742
 19 1 0.0012 1000 0.0280393 0.000599581 0.000599775
 20 1 0.0012 1000 0.0292391 0.000598827 0.000598092
 21 1 0.0012 1000 0.0309252 0.000599296 0.000599991
 22 1 0.0012 1000 0.0321246 0.000599191 0.000599819
 23 1 0.0012 1000 0.0333235 0.000598993 0.000615108
 24 1 0.0012 1000 0.034522 0.00059872 0.000598905
 25 1 0.0012 1000 0.0361999 0.000599283 0.00059942
 26 1 0.0012 1000 0.0373994 0.000596787 0.000599907
 27 1 0.0012 1000 0.0385749 0.000599871 0.000838526
 28 1 0.0012 1000 0.0409294 0.00059989 0.000598822
 29 1 0.0012 1000 0.0422026 0.000598121 0.000599093
 30 1 0.0012 1000 0.0434013 0.000599583 0.000599269
 31 1 0.0012 1000 0.00165526 0.00116697 0.000598938
 32 1 0.0012 1000 0.00496871 0.0011663 0.000599887
 33 1 0.0012 1000 0.00683801 0.00148321 0.000599596
 34 1 0.0012 1000 0.00844764 0.00164829 0.000626647
 35 1 0.0012 1000 0.00964645 0.00162647 0.000598411
 36 1 0.0012 1000 0.0111468 0.00125863 0.000598685
 37 1 0.0012 1000 0.0128086 0.0016696 0.000599674
 38 1 0.0012 1000 0.0142514 0.0013883 0.000599627
 39 1 0.0012 1000 0.0160025 0.00144162 0.000598964
 40 1 0.0012 1000 0.0177 0.00145006 0.000599356
 41 1 0.0012 1000 0.0193498 0.00162306 0.000702678
 42 1 0.0012 1000 0.0206344 0.00163758 0.000863709
 43 1 0.0012 1000 0.021806 0.00161222 0.00059872
 44 1 0.0012 1000 0.0230486 0.00163756 0.000599605
 45 1 0.0012 1000 0.0242485 0.00163735 0.000632216
 46 1 0.0012 1000 0.0256341 0.00160115 0.000599137
 47 1 0.0012 1000 0.0274414 0.00163979 0.000599113
 48 1 0.0012 1000 0.0286406 0.00163776 0.000599772
 49 1 0.0012 1000 0.0300824 0.00145218 0.000600136
 50 1 0.0012 1000 0.031526 0.00163831 0.000598437
 51 1 0.0012 1000 0.0327253 0.00163788 0.000598316
 52 1 0.0012 1000 0.0339247 0.00163902 0.000598452
 53 1 0.0012 1000 0.0353601 0.00145589 0.000598704
 54 1 0.0012 1000 0.0368032 0.00163606 0.000599097
 55 1 0.0012 1000 0.0380073 0.00162934 0.000597874
 56 1 0.0012 1000 0.0392064 0.00160959 0.000598434
 57 1 0.0012 1000 0.0415983 0.00163233 0.000597892
 58 1 0.0012 1000 0.000599758 0.00179694 0.000599813
 59 1 0.0012 1000 0.00273365 0.00227452 0.00059921
 60 1 0.0012 1000 0.00394839 0.00179769 0.000599005
 61 1 0.0012 1000 0.00579625 0.00207797 0.000598863
 62 1 0.0012 1000 0.00755327 0.00244578 0.000606116
 63 1 0.0012 1000 0.0105807 0.00237882 0.000599337
 64 1 0.0012 1000 0.0117757 0.00227958 0.000598162
 65 1 0.0012 1000 0.0137126 0.00245847 0.000598669
 66 1 0.0012 1000 0.0150916 0.00224429 0.000599177
 67 1 0.0012 1000 0.0168437 0.00229609 0.000599161
 68 1 0.0012 1000 0.0184375 0.00239531 0.000599553
 69 1 0.0012 1000 0.0265476 0.00244106 0.000598981
 70 1 0.0012 1000 0.0294833 0.00249072 0.000612302
 71 1 0.0012 1000 0.0306831 0.00249135 0.000599852
 72 1 0.0012 1000 0.0347635 0.00249682 0.000599748
 73 1 0.0012 1000 0.0359636 0.0024918 0.000599801
 74 1 0.0012 1000 0.0404017 0.00170287 0.000600356
 75 1 0.0012 1000 0.0424661 0.00255199 0.000599997
 76 1 0.0012 1000 0.0434003 0.0017993 0.000599899
 77 1 0.0012 1000 0.000599766 0.002996 0.000599565
 78 1 0.0012 1000 0.00189207 0.00337569 0.000599642
 79 1 0.0012 1000 0.00366013 0.00302438 0.000731396
 80 1 0.0012 1000 0.00482906 0.00278818 0.000598726
 81 1 0.0012 1000 0.00651214 0.00304054 0.000598607
 82 1 0.0012 1000 0.00906588 0.00267621 0.000599679
 83 1 0.0012 1000 0.0112746 0.0033695 0.000599858
 84 1 0.0012 1000 0.0126386 0.00310318 0.000716003
 85 1 0.0012 1000 0.0159432 0.00308857 0.000599248
 86 1 0.0012 1000 0.0175849 0.00323909 0.000599309
 87 1 0.0012 1000 0.0190948 0.00339831 0.000599788
 88 1 0.0012 1000 0.0200137 0.00262871 0.000599296
 89 1 0.0012 1000 0.0212131 0.00265397 0.000599007
 90 1 0.0012 1000 0.0224122 0.0026532 0.000609564
 91 1 0.0012 1000 0.023668 0.00268633 0.000628537
 92 1 0.0012 1000 0.0249378 0.0026199 0.000598763
 93 1 0.0012 1000 0.0280429 0.00267783 0.000599368
 94 1 0.0012 1000 0.0321264 0.00267043 0.000717384
 95 1 0.0012 1000 0.0333222 0.0026776 0.000599332
 96 1 0.0012 1000 0.0374108 0.00266921 0.000599369
 97 1 0.0012 1000 0.0386103 0.0026659 0.00060079
 98 1 0.0012 1000 0.0398065 0.0027446 0.000599106
 99 1 0.0012 1000 0.0413355 0.00295292 0.000599505
 100 1 0.0012 1000 0.0434001 0.00330491 0.000624964
 101 1 0.0012 1000 0.000964836 0.00413838 0.000602771
 102 1 0.0012 1000 0.0032084 0.00412807 0.000599298
 103 1 0.0012 1000 0.00444228 0.00392384 0.000599762
 104 1 0.0012 1000 0.00576624 0.00398011 0.00059938
 105 1 0.0012 1000 0.00754844 0.00364479 0.000599419
 106 1 0.0012 1000 0.00873331 0.00383188 0.000599548
 107 1 0.0012 1000 0.0100006 0.003428 0.000599496
 108 1 0.0012 1000 0.0121486 0.00419172 0.000599767
 109 1 0.0012 1000 0.0136956 0.00365686 0.00059926
 110 1 0.0012 1000 0.0155413 0.00421806 0.000599769
 111 1 0.0012 1000 0.0167487 0.00409867 0.000598751
 112 1 0.0012 1000 0.0182435 0.00423917 0.00067392
 113 1 0.0012 1000 0.0206146 0.00369164 0.000599865
 114 1 0.0012 1000 0.0218139 0.00369265 0.000600298
 115 1 0.0012 1000 0.0230137 0.00369054 0.000597916
 116 1 0.0012 1000 0.024358 0.00366511 0.000705089
 117 1 0.0012 1000 0.0258404 0.00341033 0.000598383
 118 1 0.0012 1000 0.0271474 0.00347937 0.000599705
 119 1 0.0012 1000 0.0288852 0.00352828 0.000671179
 120 1 0.0012 1000 0.0300824 0.00352943 0.000598848
 121 1 0.0012 1000 0.0315142 0.00369531 0.000599622
 122 1 0.0012 1000 0.0327139 0.00371124 0.000598425
 123 1 0.0012 1000 0.0341589 0.00351402 0.000796834
 124 1 0.0012 1000 0.0353689 0.00350724 0.000828868
 125 1 0.0012 1000 0.0365733 0.00351217 0.000757043
 126 1 0.0012 1000 0.0380123 0.00370559 0.000599145
 127 1 0.0012 1000 0.0392087 0.00379384 0.000597952
 128 1 0.0012 1000 0.040447 0.00375854 0.000597961
 129 1 0.0012 1000 0.0422728 0.00381447 0.0005998
 130 1 0.0012 1000 0.00208848 0.00455862 0.000598349
 131 1 0.0012 1000 0.005061 0.00495095 0.000598349
 132 1 0.0012 1000 0.00680294 0.00458379 0.000598649
 133 1 0.0012 1000 0.00967014 0.00458041 0.000600334
 134 1 0.0012 1000 0.0113348 0.00507286 0.000599195
 135 1 0.0012 1000 0.0132093 0.00475238 0.000599541
 136 1 0.0012 1000 0.0144112 0.0046191 0.000599221
 137 1 0.0012 1000 0.0196824 0.00444358 0.000598426
 138 1 0.0012 1000 0.0210847 0.00479536 0.000598248
 139 1 0.0012 1000 0.0222947 0.00479147 0.000598564
 140 1 0.0012 1000 0.0235508 0.00476195 0.000599552
 141 1 0.0012 1000 0.0252536 0.00445671 0.00059926
 142 1 0.0012 1000 0.0264533 0.00445792 0.000604856
 143 1 0.0012 1000 0.0276479 0.00456927 0.000620974
 144 1 0.0012 1000 0.0288371 0.00472361 0.000598468
 145 1 0.0012 1000 0.0300359 0.00472736 0.000599846
 146 1 0.0012 1000 0.031227 0.00486007 0.000599763
 147 1 0.0012 1000 0.0324253 0.00487538 0.000598672
 148 1 0.0012 1000 0.0335772 0.00454435 0.000599741
 149 1 0.0012 1000 0.0347754 0.0045234 0.000599365
 150 1 0.0012 1000 0.0359736 0.00453725 0.000598442
 151 1 0.0012 1000 0.0371723 0.00456121 0.000600297
 152 1 0.0012 1000 0.038534 0.00477825 0.000718788
 153 1 0.0012 1000 0.0397052 0.00501079 0.000599447
 154 1 0.0012 1000 0.0410767 0.0047794 0.000598241
 155 1 0.0012 1000 0.0434 0.00457713 0.000599218
 156 1 0.0012 1000 0.000598391 0.00528054 0.000598307
 157 1 0.0012 1000 0.00171828 0.00570661 0.000599821
 158 1 0.0012 1000 0.00342269 0.0053626 0.00059896
 159 1 0.0012 1000 0.00609829 0.00555327 0.00059903
 160 1 0.0012 1000 0.00740962 0.00561771 0.000598514
 161 1 0.0012 1000 0.00875651 0.00535771 0.0005989
 162 1 0.0012 1000 0.0102671 0.00561974 0.00059931
 163 1 0.0012 1000 0.0130367 0.0059386 0.000599719
 164 1 0.0012 1000 0.0142287 0.00580437 0.000598302
 165 1 0.0012 1000 0.0162459 0.00518757 0.000599594
 166 1 0.0012 1000 0.0174437 0.00512907 0.000598352
 167 1 0.0012 1000 0.0188685 0.00532297 0.000598573
 168 1 0.0012 1000 0.0201508 0.00554739 0.000599762
 169 1 0.0012 1000 0.0229473 0.00579868 0.00059942
 170 1 0.0012 1000 0.0245464 0.00543018 0.000599037
 171 1 0.0012 1000 0.0259342 0.00553955 0.000598558
 172 1 0.0012 1000 0.027128 0.00565042 0.000624841
 173 1 0.0012 1000 0.0283173 0.00580269 0.000603515
 174 1 0.0012 1000 0.0295195 0.00580941 0.000599479
 175 1 0.0012 1000 0.0331145 0.00585738 0.000599246
 176 1 0.0012 1000 0.0353624 0.00556931 0.000598395
 177 1 0.0012 1000 0.0377038 0.0056362 0.000599671
 178 1 0.0012 1000 0.0389109 0.00590972 0.000599407
 179 1 0.0012 1000 0.0406192 0.00588741 0.000599683
 180 1 0.0012 1000 0.0422235 0.00513205 0.000598864
 181 1 0.0012 1000 0.043242 0.00576661 0.00060809
 182 1 0.0012 1000 0.000844351 0.00655595 0.000598925
 183 1 0.0012 1000 0.00271177 0.00637686 0.000599605
 184 1 0.0012 1000 0.00448474 0.00600318 0.000599801
 185 1 0.0012 1000 0.00552269 0.0066049 0.000599861
 186 1 0.0012 1000 0.00670494 0.00656763 0.000800775
 187 1 0.0012 1000 0.00821367 0.00650744 0.000601261
 188 1 0.0012 1000 0.00941257 0.00646173 0.000599767
 189 1 0.0012 1000 0.0107005 0.00673742 0.00059952
 190 1 0.0012 1000 0.0117997 0.00617841 0.000599741
 191 1 0.0012 1000 0.0151001 0.00662921 0.00061219
 192 1 0.0012 1000 0.0162749 0.00638544 0.000598724
 193 1 0.0012 1000 0.0180264 0.00617702 0.000599309
 194 1 0.0012 1000 0.0193362 0.00642668 0.000610116
 195 1 0.0012 1000 0.0208789 0.00650038 0.000599947
 196 1 0.0012 1000 0.0220726 0.00661973 0.000598765
 197 1 0.0012 1000 0.0239427 0.006464 0.000680258
 198 1 0.0012 1000 0.0251633 0.00645896 0.000615902
 199 1 0.0012 1000 0.0264416 0.0066341 0.000598237
 200 1 0.0012 1000 0.0319101 0.00643694 0.000598271
 201 1 0.0012 1000 0.0340531 0.00665903 0.000599012
 202 1 0.0012 1000 0.0352482 0.00676293 0.000599297
 203 1 0.0012 1000 0.0369241 0.00655314 0.000598328
 204 1 0.0012 1000 0.038086 0.00675085 0.000821709
 205 1 0.0012 1000 0.0397755 0.0067398 0.000599889
 206 1 0.0012 1000 0.0421538 0.00637483 0.000599545
 207 1 0.0012 1000 0.00183014 0.0072393 0.000599324
 208 1 0.0012 1000 0.00362094 0.00715804 0.00059951
 209 1 0.0012 1000 0.00475028 0.00749423 0.000823329
 210 1 0.0012 1000 0.00747077 0.00746754 0.000599067
 211 1 0.0012 1000 0.00866034 0.00762051 0.000599752
 212 1 0.0012 1000 0.00985935 0.00759257 0.000599178
 213 1 0.0012 1000 0.0126131 0.00706002 0.00059931
 214 1 0.0012 1000 0.0138066 0.00692698 0.000599668
 215 1 0.0012 1000 0.0170767 0.00727715 0.000599634
 216 1 0.0012 1000 0.0189814 0.00757078 0.000598169
 217 1 0.0012 1000 0.020178 0.00747405 0.00059965
 218 1 0.0012 1000 0.0213721 0.00759395 0.00059908
 219 1 0.0012 1000 0.022848 0.00753473 0.00059971
 220 1 0.0012 1000 0.0240425 0.00765709 0.000599996
 221 1 0.0012 1000 0.0256692 0.00753595 0.000769121
 222 1 0.0012 1000 0.0277126 0.00683777 0.000599412
 223 1 0.0012 1000 0.0289123 0.00684335 0.000599035
 224 1 0.0012 1000 0.0301557 0.00682703 0.000599827
 225 1 0.0012 1000 0.0318291 0.00763341 0.000598928
 226 1 0.0012 1000 0.0329274 0.00707204 0.000599121
 227 1 0.0012 1000 0.0361883 0.00747694 0.000809405
 228 1 0.0012 1000 0.0388886 0.00761441 0.00059958
 229 1 0.0012 1000 0.0411169 0.00697851 0.00059961
 230 1 0.0012 1000 0.042362 0.00755648 0.000602561
 231 1 0.0012 1000 0.0434007 0.00695732 0.000599211
 232 1 0.0012 1000 0.000599691 0.00777496 0.000599484
 233 1 0.0012 1000 0.00161174 0.00841911 0.000600506
 234 1 0.0012 1000 0.00274232 0.00801749 0.000598499
 235 1 0.0012 1000 0.00390207 0.00832321 0.000599129
 236 1 0.0012 1000 0.00592744 0.00773425 0.000598489
 237 1 0.0012 1000 0.0110208 0.00789339 0.000599731
 238 1 0.0012 1000 0.0121853 0.0081797 0.000598804
 239 1 0.0012 1000 0.01447 0.00792678 0.000599168
 240 1 0.0012 1000 0.015667 0.00784397 0.00059827
 241 1 0.0012 1000 0.0168061 0.00844541 0.000599681
 242 1 0.0012 1000 0.0179877 0.00824145 0.000599856
 243 1 0.0012 1000 0.0249296 0.00846516 0.000599178
 244 1 0.0012 1000 0.0269178 0.00773515 0.000599654
 245 1 0.0012 1000 0.0283384 0.00789672 0.000599682
 246 1 0.0012 1000 0.0295457 0.00786 0.000598912
 247 1 0.0012 1000 0.0307218 0.0080947 0.000599315
 248 1 0.0012 1000 0.0329904 0.00826962 0.000599779
 249 1 0.0012 1000 0.0341161 0.00785487 0.000597975
 250 1 0.0012 1000 0.035262 0.00820939 0.000599788
 251 1 0.0012 1000 0.037352 0.00767305 0.000599531
 252 1 0.0012 1000 0.040162 0.00787419 0.000599615
 253 1 0.0012 1000 0.0413258 0.00815965 0.00059877
 254 1 0.0012 1000 0.0434008 0.00815717 0.000599055
 255 1 0.0012 1000 0.00305723 0.00917427 0.000599181
 256 1 0.0012 1000 0.00506088 0.00863044 0.000599369
 257 1 0.0012 1000 0.00671508 0.00863897 0.000598997
 258 1 0.0012 1000 0.00900154 0.0087703 0.000599436
 259 1 0.0012 1000 0.0102002 0.00876807 0.000599222
 260 1 0.0012 1000 0.0113601 0.00907364 0.000599455
 261 1 0.0012 1000 0.0125575 0.00931974 0.00059914
 262 1 0.0012 1000 0.0137925 0.00901947 0.000598979
 263 1 0.0012 1000 0.0157649 0.00903951 0.000600867
 264 1 0.0012 1000 0.0190666 0.00876653 0.000599936
 265 1 0.0012 1000 0.0206718 0.00856319 0.000699269
 266 1 0.0012 1000 0.022139 0.00851579 0.000599877
 267 1 0.0012 1000 0.0233326 0.00863185 0.0005984
 268 1 0.0012 1000 0.0261304 0.00863753 0.000653549
 269 1 0.0012 1000 0.0275503 0.00880129 0.000599637
 270 1 0.0012 1000 0.0290917 0.0089698 0.000599705
 271 1 0.0012 1000 0.0306652 0.00929324 0.000599112
 272 1 0.0012 1000 0.0317716 0.00883101 0.000599657
 273 1 0.0012 1000 0.0339155 0.00903621 0.000599888
 274 1 0.0012 1000 0.0364014 0.00863896 0.000599707
 275 1 0.0012 1000 0.0381501 0.00856518 0.000640284
 276 1 0.0012 1000 0.0393346 0.0087414 0.000599043
 277 1 0.0012 1000 0.0404996 0.0090281 0.000600112
 278 1 0.0012 1000 0.0423631 0.00875825 0.000599896
 279 1 0.0012 1000 0.0434014 0.00935699 0.000599231
 280 1 0.0012 1000 0.000808664 0.00995925 0.000598068
 281 1 0.0012 1000 0.00193289 0.00956534 0.000749621
 282 1 0.0012 1000 0.00421542 0.00947914 0.000664557
 283 1 0.0012 1000 0.00588094 0.00950408 0.00059967
 284 1 0.0012 1000 0.0070182 0.0098806 0.00059889
 285 1 0.0012 1000 0.0081972 0.00965981 0.000599061
 286 1 0.0012 1000 0.00937028 0.00991202 0.000599982
 287 1 0.0012 1000 0.0105685 0.00997541 0.000599778
 288 1 0.0012 1000 0.0117519 0.0102049 0.000675347
 289 1 0.0012 1000 0.014772 0.00971069 0.00059933
 290 1 0.0012 1000 0.0168582 0.00964361 0.000599657
 291 1 0.0012 1000 0.0180643 0.00943892 0.000599558
 292 1 0.0012 1000 0.0192793 0.0099465 0.000599666
 293 1 0.0012 1000 0.0206425 0.00981207 0.000597649
 294 1 0.0012 1000 0.0226269 0.0096119 0.000599715
 295 1 0.0012 1000 0.0242206 0.00943705 0.000599293
 296 1 0.0012 1000 0.0254094 0.00959384 0.00059906
 297 1 0.0012 1000 0.0266005 0.00974012 0.000599808
 298 1 0.0012 1000 0.0278278 0.00996844 0.000598421
 299 1 0.0012 1000 0.0290111 0.010166 0.000599263
 300 1 0.0012 1000 0.0317515 0.0100305 0.000599932
 301 1 0.0012 1000 0.0327945 0.00944763 0.000708539
 302 1 0.0012 1000 0.0350611 0.00939194 0.000598684
 303 1 0.0012 1000 0.0361804 0.00982153 0.00059894
 304 1 0.0012 1000 0.0373113 0.0094212 0.000599447
 305 1 0.0012 1000 0.038486 0.00971539 0.000599253
 306 1 0.0012 1000 0.0396701 0.00989002 0.000678725
 307 1 0.0012 1000 0.0411649 0.0100265 0.00059925
 308 1 0.0012 1000 0.0423621 0.0099573 0.000599701
 309 1 0.0012 1000 0.00172177 0.0107367 0.000598935
 310 1 0.0012 1000 0.00285949 0.0103561 0.000599566
 311 1 0.0012 1000 0.00394733 0.0108622 0.000599894
 312 1 0.0012 1000 0.0050338 0.0103532 0.000599501
 313 1 0.0012 1000 0.00617236 0.0107313 0.00059974
 314 1 0.0012 1000 0.00779771 0.010791 0.000600594
 315 1 0.0012 1000 0.00977367 0.011042 0.000599328
 316 1 0.0012 1000 0.0126342 0.0110142 0.000598908
 317 1 0.0012 1000 0.0137086 0.0102657 0.000597977
 318 1 0.0012 1000 0.0148358 0.0109068 0.000599549
 319 1 0.0012 1000 0.0181314 0.0106369 0.000599971
 320 1 0.0012 1000 0.0206915 0.0110143 0.000599826
 321 1 0.0012 1000 0.0217402 0.0104201 0.000598271
 322 1 0.0012 1000 0.0235356 0.0104215 0.00060422
 323 1 0.0012 1000 0.0247251 0.0105789 0.000599834
 324 1 0.0012 1000 0.0258694 0.0109454 0.000599272
 325 1 0.0012 1000 0.0271186 0.0109362 0.000599752
 326 1 0.0012 1000 0.0306444 0.0104926 0.000599009
 327 1 0.0012 1000 0.0327919 0.0106412 0.000599781
 328 1 0.0012 1000 0.0341065 0.0102197 0.000599593
 329 1 0.0012 1000 0.0352134 0.0106828 0.000599719
 330 1 0.0012 1000 0.0379375 0.0107818 0.00059915
 331 1 0.0012 1000 0.0391326 0.0109585 0.000598598
 332 1 0.0012 1000 0.0403304 0.0108882 0.000599805
 333 1 0.0012 1000 0.0434008 0.0105562 0.000599839
 334 1 0.0012 1000 0.000599993 0.0111187 0.000826122
 335 1 0.0012 1000 0.00264599 0.0115355 0.000599362
 336 1 0.0012 1000 0.00515917 0.011546 0.000599727
 337 1 0.0012 1000 0.00709626 0.0117643 0.000599338
 338 1 0.0012 1000 0.0087006 0.011579 0.000599125
 339 1 0.0012 1000 0.0109713 0.0111122 0.000599388
 340 1 0.0012 1000 0.013773 0.0114639 0.000600009
 341 1 0.0012 1000 0.0159881 0.0112411 0.000598817
 342 1 0.0012 1000 0.0175017 0.0117761 0.000597996
 343 1 0.0012 1000 0.0192188 0.0111438 0.000598883
 344 1 0.0012 1000 0.0215927 0.0118065 0.000599604
 345 1 0.0012 1000 0.0226371 0.0112157 0.000599541
 346 1 0.0012 1000 0.0285146 0.0112569 0.000599562
 347 1 0.0012 1000 0.0297117 0.0112435 0.000673434
 348 1 0.0012 1000 0.0307319 0.0118702 0.000599355
 349 1 0.0012 1000 0.0317467 0.0112302 0.000599665
 350 1 0.0012 1000 0.033061 0.0118093 0.000598522
 351 1 0.0012 1000 0.0341936 0.0114154 0.000599739
 352 1 0.0012 1000 0.0352991 0.0118795 0.000599087
 353 1 0.0012 1000 0.0363804 0.0111646 0.00059982
 354 1 0.0012 1000 0.0373724 0.0118397 0.000599729
 355 1 0.0012 1000 0.0410948 0.0118126 0.000598757
 356 1 0.0012 1000 0.0421222 0.0111328 0.00059929
 357 1 0.0012 1000 0.0434005 0.011755 0.000598904
 358 1 0.0012 1000 0.000599506 0.0127004 0.000599851
 359 1 0.0012 1000 0.00150851 0.0119174 0.000599984
 360 1 0.0012 1000 0.00274966 0.0127297 0.0005992
 361 1 0.0012 1000 0.00373327 0.0120427 0.000599713
 362 1 0.0012 1000 0.00475307 0.0126745 0.000608652
 363 1 0.0012 1000 0.00593367 0.0124623 0.000599614
 364 1 0.0012 1000 0.00817681 0.0126769 0.000599203
 365 1 0.0012 1000 0.0094045 0.0125487 0.000599737
 366 1 0.0012 1000 0.0105636 0.0122403 0.000600145
 367 1 0.0012 1000 0.0118585 0.0119288 0.000599342
 368 1 0.0012 1000 0.0129846 0.0123685 0.000599365
 369 1 0.0012 1000 0.0149215 0.012102 0.000599253
 370 1 0.0012 1000 0.0163903 0.0123714 0.000622457
 371 1 0.0012 1000 0.0188998 0.0122997 0.000599081
 372 1 0.0012 1000 0.020072 0.0120432 0.000599861
 373 1 0.0012 1000 0.0226267 0.0124148 0.00060567
 374 1 0.0012 1000 0.0241772 0.0125606 0.000599918
 375 1 0.0012 1000 0.0252068 0.0119455 0.000599422
 376 1 0.0012 1000 0.0264036 0.0120195 0.00059992
 377 1 0.0012 1000 0.0276024 0.0120342 0.000599702
 378 1 0.0012 1000 0.0286473 0.0126239 0.000614495
 379 1 0.0012 1000 0.0298458 0.0126787 0.000599808
 380 1 0.0012 1000 0.0320164 0.012399 0.000602374
 381 1 0.0012 1000 0.0343058 0.0126099 0.000599947
 382 1 0.0012 1000 0.0363465 0.0124172 0.000826271
 383 1 0.0012 1000 0.0385587 0.0120106 0.000642195
 384 1 0.0012 1000 0.0423431 0.0123214 0.000600102
 385 1 0.0012 1000 0.00164908 0.0132814 0.000599048
 386 1 0.0012 1000 0.00376955 0.0133612 0.000599286
 387 1 0.0012 1000 0.00701611 0.012979 0.000605499
 388 1 0.0012 1000 0.0101848 0.0134587 0.00059971
 389 1 0.0012 1000 0.0114443 0.0130545 0.000599357
 390 1 0.0012 1000 0.01259 0.0135017 0.000599987
 391 1 0.0012 1000 0.014048 0.0129237 0.000598399
 392 1 0.0012 1000 0.0153744 0.0132121 0.000599488
 393 1 0.0012 1000 0.0174285 0.0129727 0.000599613
 394 1 0.0012 1000 0.0185332 0.0134412 0.000599187
 395 1 0.0012 1000 0.0197057 0.0131878 0.000599762
 396 1 0.0012 1000 0.0208841 0.012966 0.000598986
 397 1 0.0012 1000 0.0220735 0.0134793 0.000599522
 398 1 0.0012 1000 0.0233166 0.0133957 0.000599886
 399 1 0.0012 1000 0.0251664 0.0134278 0.000598964
 400 1 0.0012 1000 0.027455 0.0132241 0.000599232
 401 1 0.0012 1000 0.0310021 0.0130393 0.00059964
 402 1 0.0012 1000 0.0321355 0.0135926 0.000599827
 403 1 0.0012 1000 0.0331791 0.0129918 0.000755076
 404 1 0.0012 1000 0.0353858 0.0131323 0.000599247
 405 1 0.0012 1000 0.0369804 0.0134096 0.000599577
 406 1 0.0012 1000 0.0381483 0.0131371 0.000599172
 407 1 0.0012 1000 0.0393295 0.0129285 0.000598842
 408 1 0.0012 1000 0.0403183 0.0136064 0.000598777
 409 1 0.0012 1000 0.0413444 0.0129857 0.000599711
 410 1 0.0012 1000 0.0423821 0.0135873 0.000599731
 411 1 0.0012 1000 0.0434007 0.0129545 0.000599318
 412 1 0.0012 1000 0.000599589 0.0139113 0.000598523
 413 1 0.0012 1000 0.002713 0.0139264 0.000660812
 414 1 0.0012 1000 0.00489798 0.0138629 0.000680671
 415 1 0.0012 1000 0.00608883 0.0137402 0.000599672
 416 1 0.0012 1000 0.00779163 0.0138945 0.000599383
 417 1 0.0012 1000 0.0108654 0.0144455 0.000599871
 418 1 0.0012 1000 0.0133825 0.0144656 0.000613467
 419 1 0.0012 1000 0.0145014 0.0140341 0.000598985
 420 1 0.0012 1000 0.0164715 0.0136958 0.000607287
 421 1 0.0012 1000 0.0175762 0.0141625 0.000599078
 422 1 0.0012 1000 0.019841 0.0143795 0.000600874
 423 1 0.0012 1000 0.0242781 0.0142341 0.000599147
 424 1 0.0012 1000 0.0259972 0.0142932 0.00059949
 425 1 0.0012 1000 0.029201 0.0136904 0.000599756
 426 1 0.0012 1000 0.0311226 0.01423 0.000686461
 427 1 0.0012 1000 0.0331813 0.0141806 0.000599328
 428 1 0.0012 1000 0.0343536 0.0139268 0.000598852
 429 1 0.0012 1000 0.0354842 0.014328 0.000599986
 430 1 0.0012 1000 0.0378289 0.0142935 0.000599947
 431 1 0.0012 1000 0.0413558 0.0142084 0.000599956
 432 1 0.0012 1000 0.0434003 0.014222 0.000599578
 433 1 0.0012 1000 0.000599531 0.0151106 0.000599598
 434 1 0.0012 1000 0.00165308 0.014485 0.000599283
 435 1 0.0012 1000 0.00268453 0.0151232 0.000599761
 436 1 0.0012 1000 0.00374423 0.0145613 0.00059915
 437 1 0.0012 1000 0.00483638 0.0150579 0.000599536
 438 1 0.0012 1000 0.0060304 0.0149386 0.000599696
 439 1 0.0012 1000 0.00722854 0.0150027 0.000599781
 440 1 0.0012 1000 0.00843806 0.0153071 0.000599848
 441 1 0.0012 1000 0.00940466 0.0145962 0.000598021
 442 1 0.0012 1000 0.0122416 0.014835 0.00059974
 443 1 0.0012 1000 0.0155987 0.0145186 0.000599914
 444 1 0.0012 1000 0.0167039 0.0149844 0.000599367
 445 1 0.0012 1000 0.018672 0.0146501 0.000599189
 446 1 0.0012 1000 0.0208075 0.0150903 0.000598967
 447 1 0.0012 1000 0.0219334 0.0146709 0.000599609
 448 1 0.0012 1000 0.0231298 0.0145798 0.000598838
 449 1 0.0012 1000 0.0251087 0.0150995 0.00059922
 450 1 0.0012 1000 0.0266938 0.0152702 0.000598834
 451 1 0.0012 1000 0.0281427 0.0145365 0.000598777
 452 1 0.0012 1000 0.0299843 0.014599 0.000599072
 453 1 0.0012 1000 0.0327633 0.0153043 0.000599597
 454 1 0.0012 1000 0.0340378 0.0150842 0.000599377
 455 1 0.0012 1000 0.0366602 0.0145652 0.000599628
 456 1 0.0012 1000 0.0389986 0.014782 0.000599953
 457 1 0.0012 1000 0.040163 0.0151779 0.000599518
 458 1 0.0012 1000 0.00163845 0.01571 0.000599144
 459 1 0.0012 1000 0.00373576 0.0157611 0.000599817
 460 1 0.0012 1000 0.00546507 0.0160791 0.000599386
 461 1 0.0012 1000 0.00662604 0.0159991 0.000889774
 462 1 0.0012 1000 0.0100913 0.0155843 0.000599414
 463 1 0.0012 1000 0.0112909 0.0155662 0.000599677
 464 1 0.0012 1000 0.012413 0.0160229 0.000599713
 465 1 0.0012 1000 0.0135592 0.0156679 0.000599437
 466 1 0.0012 1000 0.0147078 0.0153217 0.000599314
 467 1 0.0012 1000 0.0158133 0.0157876 0.000599335
 468 1 0.0012 1000 0.0172771 0.0160378 0.000599935
 469 1 0.0012 1000 0.018461 0.015844 0.000599716
 470 1 0.0012 1000 0.0196153 0.0155495 0.00073978
 471 1 0.0012 1000 0.0217289 0.0159671 0.000599025
 472 1 0.0012 1000 0.0229378 0.0157632 0.000608088
 473 1 0.0012 1000 0.0241369 0.0158031 0.000599228
 474 1 0.0012 1000 0.0258053 0.0160756 0.000599562
 475 1 0.0012 1000 0.0278968 0.015711 0.000599999
 476 1 0.0012 1000 0.0290375 0.0153351 0.000599529
 477 1 0.0012 1000 0.0304176 0.0157172 0.000599832
 478 1 0.0012 1000 0.0315655 0.0153691 0.000599865
 479 1 0.0012 1000 0.0347993 0.0160119 0.000599231
 480 1 0.0012 1000 0.0358669 0.0154648 0.000599728
 481 1 0.0012 1000 0.0389809 0.0160116 0.000599838
 482 1 0.0012 1000 0.0413439 0.0154079 0.000599597
 483 1 0.0012 1000 0.0429124 0.0153179 0.000599562
 484 1 0.0012 1000 0.000599479 0.0163099 0.000599981
 485 1 0.0012 1000 0.00163862 0.0169094 0.000612335
 486 1 0.0012 1000 0.00267782 0.0163175 0.000704147
 487 1 0.0012 1000 0.00445301 0.016723 0.00059968
 488 1 0.0012 1000 0.00775252 0.0162919 0.000599894
 489 1 0.0012 1000 0.00894786 0.0163933 0.000599617
 490 1 0.0012 1000 0.0100821 0.0167843 0.000599572
 491 1 0.0012 1000 0.0114353 0.016756 0.00059933
 492 1 0.0012 1000 0.0136976 0.0168878 0.00059964
 493 1 0.0012 1000 0.0148376 0.0165144 0.000599695
 494 1 0.0012 1000 0.0159432 0.0169803 0.000599696
 495 1 0.0012 1000 0.0194629 0.0167341 0.000600347
 496 1 0.0012 1000 0.0205672 0.0162659 0.000599507
 497 1 0.0012 1000 0.0225091 0.0168809 0.000673423
 498 1 0.0012 1000 0.023706 0.0169227 0.000599577
 499 1 0.0012 1000 0.0269467 0.0164414 0.000660656
 500 1 0.0012 1000 0.0294704 0.0164532 0.000599668
 501 1 0.0012 1000 0.0305818 0.0169054 0.000601983
 502 1 0.0012 1000 0.0317324 0.0165654 0.000598382
 503 1 0.0012 1000 0.0335507 0.016209 0.000599576
 504 1 0.0012 1000 0.0365018 0.0164814 0.000645259
 505 1 0.0012 1000 0.0376994 0.016532 0.000599911
 506 1 0.0012 1000 0.0405778 0.0162964 0.000849702
 507 1 0.0012 1000 0.0417408 0.0165482 0.000599425
 508 1 0.0012 1000 0.0434003 0.0164136 0.000599956
 509 1 0.0012 1000 0.00059963 0.0175091 0.000601521
 510 1 0.0012 1000 0.00338919 0.0172772 0.000599431
 511 1 0.0012 1000 0.00606822 0.0171159 0.000599518
 512 1 0.0012 1000 0.00804789 0.0174547 0.000599638
 513 1 0.0012 1000 0.00923359 0.0176314 0.000643981
 514 1 0.0012 1000 0.0125436 0.0172157 0.000599957
 515 1 0.0012 1000 0.0150389 0.0177689 0.000599414
 516 1 0.0012 1000 0.0171172 0.0172264 0.000599584
 517 1 0.0012 1000 0.0183012 0.0170332 0.00059896
 518 1 0.0012 1000 0.019972 0.0178255 0.00059943
 519 1 0.0012 1000 0.0213486 0.0171762 0.000599696
 520 1 0.0012 1000 0.0247679 0.0178637 0.000599229
 521 1 0.0012 1000 0.0258122 0.0172743 0.0005992
 522 1 0.0012 1000 0.0273497 0.01757 0.000601948
 523 1 0.0012 1000 0.0284344 0.0170577 0.000599282
 524 1 0.0012 1000 0.0295252 0.0176455 0.000714099
 525 1 0.0012 1000 0.0318004 0.0178528 0.000599432
 526 1 0.0012 1000 0.0337875 0.0173846 0.000599587
 527 1 0.0012 1000 0.0349727 0.0171989 0.000599585
 528 1 0.0012 1000 0.0360994 0.0176103 0.000599536
 529 1 0.0012 1000 0.0372959 0.0176914 0.000598431
 530 1 0.0012 1000 0.0387088 0.0171803 0.000599585
 531 1 0.0012 1000 0.0399056 0.0172578 0.00059981
 532 1 0.0012 1000 0.0410056 0.0177361 0.000599878
 533 1 0.0012 1000 0.0422024 0.0176557 0.000599661
 534 1 0.0012 1000 0.043401 0.017613 0.00059941
 535 1 0.0012 1000 0.000599793 0.0187083 0.000610115
 536 1 0.0012 1000 0.00163893 0.0181085 0.000599846
 537 1 0.0012 1000 0.00281771 0.0183318 0.000599177
 538 1 0.0012 1000 0.00439161 0.0179356 0.000599417
 539 1 0.0012 1000 0.00556109 0.0182029 0.000598456
 540 1 0.0012 1000 0.0067665 0.0180916 0.000599712
 541 1 0.0012 1000 0.00801432 0.0186539 0.00059959
 542 1 0.0012 1000 0.0103912 0.0179433 0.000599609
 543 1 0.0012 1000 0.0115907 0.0179449 0.000599679
 544 1 0.0012 1000 0.0134049 0.0180511 0.000599796
 545 1 0.0012 1000 0.0163256 0.0181278 0.000599052
 546 1 0.0012 1000 0.0178614 0.018167 0.000599713
 547 1 0.0012 1000 0.0190035 0.0185333 0.000609197
 548 1 0.0012 1000 0.0210419 0.0183348 0.000787831
 549 1 0.0012 1000 0.0221878 0.0180337 0.000599314
 550 1 0.0012 1000 0.0233866 0.018079 0.000599684
 551 1 0.0012 1000 0.0264089 0.0183141 0.000599543
 552 1 0.0012 1000 0.0284989 0.0182557 0.000599301
 553 1 0.0012 1000 0.0306275 0.0181039 0.000599644
 554 1 0.0012 1000 0.0327977 0.0185189 0.000619799
 555 1 0.0012 1000 0.0339959 0.0185658 0.000599522
 556 1 0.0012 1000 0.0351812 0.0183821 0.000599837
 557 1 0.0012 1000 0.0366179 0.0186918 0.000601087
 558 1 0.0012 1000 0.0383185 0.0183101 0.000703576
 559 1 0.0012 1000 0.0395107 0.0183907 0.000599291
 560 1 0.0012 1000 0.00183427 0.0192918 0.000599634
 561 1 0.0012 1000 0.00300969 0.0195321 0.000599812
 562 1 0.0012 1000 0.00502419 0.019276 0.000599993
 563 1 0.0012 1000 0.00625038 0.019184 0.000599792
 564 1 0.0012 1000 0.00941429 0.0188403 0.000599647
 565 1 0.0012 1000 0.0105793 0.0191278 0.00059944
 566 1 0.0012 1000 0.0117789 0.0191292 0.000599409
 567 1 0.0012 1000 0.0129779 0.0191724 0.000599844
 568 1 0.0012 1000 0.0142168 0.0189315 0.00066946
 569 1 0.0012 1000 0.0154144 0.0189083 0.00059968
 570 1 0.0012 1000 0.0170701 0.0190687 0.000599939
 571 1 0.0012 1000 0.0182125 0.0194356 0.000608018
 572 1 0.0012 1000 0.0200902 0.0190411 0.000599803
 573 1 0.0012 1000 0.0218687 0.0191896 0.000599626
 574 1 0.0012 1000 0.0230669 0.019235 0.000599838
 575 1 0.0012 1000 0.0242279 0.0189345 0.000598896
 576 1 0.0012 1000 0.0254254 0.0190005 0.000599768
 577 1 0.0012 1000 0.02747 0.0188722 0.000619884
 578 1 0.0012 1000 0.0285181 0.0194552 0.000599333
 579 1 0.0012 1000 0.0295473 0.0188393 0.000599271
 580 1 0.0012 1000 0.0306536 0.0193028 0.000599382
 581 1 0.0012 1000 0.0318839 0.019296 0.000599428
 582 1 0.0012 1000 0.037651 0.0193017 0.000599969