 Granular Flow simulation

           5  atoms
           10  atom types

   0.000000      0.2      xlo xhi
   0.000000      0.2      ylo yhi
   0.000000      0.1      zlo zhi

 Atoms

     1   1 3.00000E-03  2.65000E+03  5.0E-02  1.5E-01  5.0E-02
     2   1 2.50000E-03  2.65000E+03  1.0E-01  1.5E-01  5.0E-02
     3   1 1.50000E-03  2.65000E+03  1.7E-01  1.5E-01  5.0E-02
     4   1 2.00000E-03  2.65000E+03  1.0E-01  1.4E-01  5.0E-02
     5   1 2.00000E-03  2.65000E+03  1.01E-01  1.4E-01  5.0E-02
