 sphere data

        21780    atoms
        2    atom types

 0.0 0.02  xlo xhi
 -0.1 0.1  ylo yhi
 0.0 0.02  zlo zhi

 Atoms

 1 1 0.0005 2650 0.00030303030303 0.000301 0.00030303030303
 2 1 0.0005 2650 0.000909090909091 0.000301 0.00030303030303
 3 1 0.0005 2650 0.00151515151515 0.000301 0.00030303030303
 4 1 0.0005 2650 0.00212121212121 0.000301 0.00030303030303
 5 1 0.0005 2650 0.00272727272727 0.000301 0.00030303030303
 6 1 0.0005 2650 0.00333333333333 0.000301 0.00030303030303
 7 1 0.0005 2650 0.00393939393939 0.000301 0.00030303030303
 8 1 0.0005 2650 0.00454545454545 0.000301 0.00030303030303
 9 1 0.0005 2650 0.00515151515152 0.000301 0.00030303030303
 10 1 0.0005 2650 0.00575757575758 0.000301 0.00030303030303
 11 1 0.0005 2650 0.00636363636364 0.000301 0.00030303030303
 12 1 0.0005 2650 0.0069696969697 0.000301 0.00030303030303
 13 1 0.0005 2650 0.00757575757576 0.000301 0.00030303030303
 14 1 0.0005 2650 0.00818181818182 0.000301 0.00030303030303
 15 1 0.0005 2650 0.00878787878788 0.000301 0.00030303030303
 16 1 0.0005 2650 0.00939393939394 0.000301 0.00030303030303
 17 1 0.0005 2650 0.01 0.000301 0.00030303030303
 18 1 0.0005 2650 0.0106060606061 0.000301 0.00030303030303
 19 1 0.0005 2650 0.0112121212121 0.000301 0.00030303030303
 20 1 0.0005 2650 0.0118181818182 0.000301 0.00030303030303
 21 1 0.0005 2650 0.0124242424242 0.000301 0.00030303030303
 22 1 0.0005 2650 0.0130303030303 0.000301 0.00030303030303
 23 1 0.0005 2650 0.0136363636364 0.000301 0.00030303030303
 24 1 0.0005 2650 0.0142424242424 0.000301 0.00030303030303
 25 1 0.0005 2650 0.0148484848485 0.000301 0.00030303030303
 26 1 0.0005 2650 0.0154545454545 0.000301 0.00030303030303
 27 1 0.0005 2650 0.0160606060606 0.000301 0.00030303030303
 28 1 0.0005 2650 0.0166666666667 0.000301 0.00030303030303
 29 1 0.0005 2650 0.0172727272727 0.000301 0.00030303030303
 30 1 0.0005 2650 0.0178787878788 0.000301 0.00030303030303
 31 1 0.0005 2650 0.0184848484848 0.000301 0.00030303030303
 32 1 0.0005 2650 0.0190909090909 0.000301 0.00030303030303
 33 1 0.0005 2650 0.019696969697 0.000301 0.00030303030303
 34 1 0.0005 2650 0.00030303030303 0.000301 0.000909090909091
 35 1 0.0005 2650 0.000909090909091 0.000301 0.000909090909091
 36 1 0.0005 2650 0.00151515151515 0.000301 0.000909090909091
 37 1 0.0005 2650 0.00212121212121 0.000301 0.000909090909091
 38 1 0.0005 2650 0.00272727272727 0.000301 0.000909090909091
 39 1 0.0005 2650 0.00333333333333 0.000301 0.000909090909091
 40 1 0.0005 2650 0.00393939393939 0.000301 0.000909090909091
 41 1 0.0005 2650 0.00454545454545 0.000301 0.000909090909091
 42 1 0.0005 2650 0.00515151515152 0.000301 0.000909090909091
 43 1 0.0005 2650 0.00575757575758 0.000301 0.000909090909091
 44 1 0.0005 2650 0.00636363636364 0.000301 0.000909090909091
 45 1 0.0005 2650 0.0069696969697 0.000301 0.000909090909091
 46 1 0.0005 2650 0.00757575757576 0.000301 0.000909090909091
 47 1 0.0005 2650 0.00818181818182 0.000301 0.000909090909091
 48 1 0.0005 2650 0.00878787878788 0.000301 0.000909090909091
 49 1 0.0005 2650 0.00939393939394 0.000301 0.000909090909091
 50 1 0.0005 2650 0.01 0.000301 0.000909090909091
 51 1 0.0005 2650 0.0106060606061 0.000301 0.000909090909091
 52 1 0.0005 2650 0.0112121212121 0.000301 0.000909090909091
 53 1 0.0005 2650 0.0118181818182 0.000301 0.000909090909091
 54 1 0.0005 2650 0.0124242424242 0.000301 0.000909090909091
 55 1 0.0005 2650 0.0130303030303 0.000301 0.000909090909091
 56 1 0.0005 2650 0.0136363636364 0.000301 0.000909090909091
 57 1 0.0005 2650 0.0142424242424 0.000301 0.000909090909091
 58 1 0.0005 2650 0.0148484848485 0.000301 0.000909090909091
 59 1 0.0005 2650 0.0154545454545 0.000301 0.000909090909091
 60 1 0.0005 2650 0.0160606060606 0.000301 0.000909090909091
 61 1 0.0005 2650 0.0166666666667 0.000301 0.000909090909091
 62 1 0.0005 2650 0.0172727272727 0.000301 0.000909090909091
 63 1 0.0005 2650 0.0178787878788 0.000301 0.000909090909091
 64 1 0.0005 2650 0.0184848484848 0.000301 0.000909090909091
 65 1 0.0005 2650 0.0190909090909 0.000301 0.000909090909091
 66 1 0.0005 2650 0.019696969697 0.000301 0.000909090909091
 67 1 0.0005 2650 0.00030303030303 0.000301 0.00151515151515
 68 1 0.0005 2650 0.000909090909091 0.000301 0.00151515151515
 69 1 0.0005 2650 0.00151515151515 0.000301 0.00151515151515
 70 1 0.0005 2650 0.00212121212121 0.000301 0.00151515151515
 71 1 0.0005 2650 0.00272727272727 0.000301 0.00151515151515
 72 1 0.0005 2650 0.00333333333333 0.000301 0.00151515151515
 73 1 0.0005 2650 0.00393939393939 0.000301 0.00151515151515
 74 1 0.0005 2650 0.00454545454545 0.000301 0.00151515151515
 75 1 0.0005 2650 0.00515151515152 0.000301 0.00151515151515
 76 1 0.0005 2650 0.00575757575758 0.000301 0.00151515151515
 77 1 0.0005 2650 0.00636363636364 0.000301 0.00151515151515
 78 1 0.0005 2650 0.0069696969697 0.000301 0.00151515151515
 79 1 0.0005 2650 0.00757575757576 0.000301 0.00151515151515
 80 1 0.0005 2650 0.00818181818182 0.000301 0.00151515151515
 81 1 0.0005 2650 0.00878787878788 0.000301 0.00151515151515
 82 1 0.0005 2650 0.00939393939394 0.000301 0.00151515151515
 83 1 0.0005 2650 0.01 0.000301 0.00151515151515
 84 1 0.0005 2650 0.0106060606061 0.000301 0.00151515151515
 85 1 0.0005 2650 0.0112121212121 0.000301 0.00151515151515
 86 1 0.0005 2650 0.0118181818182 0.000301 0.00151515151515
 87 1 0.0005 2650 0.0124242424242 0.000301 0.00151515151515
 88 1 0.0005 2650 0.0130303030303 0.000301 0.00151515151515
 89 1 0.0005 2650 0.0136363636364 0.000301 0.00151515151515
 90 1 0.0005 2650 0.0142424242424 0.000301 0.00151515151515
 91 1 0.0005 2650 0.0148484848485 0.000301 0.00151515151515
 92 1 0.0005 2650 0.0154545454545 0.000301 0.00151515151515
 93 1 0.0005 2650 0.0160606060606 0.000301 0.00151515151515
 94 1 0.0005 2650 0.0166666666667 0.000301 0.00151515151515
 95 1 0.0005 2650 0.0172727272727 0.000301 0.00151515151515
 96 1 0.0005 2650 0.0178787878788 0.000301 0.00151515151515
 97 1 0.0005 2650 0.0184848484848 0.000301 0.00151515151515
 98 1 0.0005 2650 0.0190909090909 0.000301 0.00151515151515
 99 1 0.0005 2650 0.019696969697 0.000301 0.00151515151515
 100 1 0.0005 2650 0.00030303030303 0.000301 0.00212121212121
 101 1 0.0005 2650 0.000909090909091 0.000301 0.00212121212121
 102 1 0.0005 2650 0.00151515151515 0.000301 0.00212121212121
 103 1 0.0005 2650 0.00212121212121 0.000301 0.00212121212121
 104 1 0.0005 2650 0.00272727272727 0.000301 0.00212121212121
 105 1 0.0005 2650 0.00333333333333 0.000301 0.00212121212121
 106 1 0.0005 2650 0.00393939393939 0.000301 0.00212121212121
 107 1 0.0005 2650 0.00454545454545 0.000301 0.00212121212121
 108 1 0.0005 2650 0.00515151515152 0.000301 0.00212121212121
 109 1 0.0005 2650 0.00575757575758 0.000301 0.00212121212121
 110 1 0.0005 2650 0.00636363636364 0.000301 0.00212121212121
 111 1 0.0005 2650 0.0069696969697 0.000301 0.00212121212121
 112 1 0.0005 2650 0.00757575757576 0.000301 0.00212121212121
 113 1 0.0005 2650 0.00818181818182 0.000301 0.00212121212121
 114 1 0.0005 2650 0.00878787878788 0.000301 0.00212121212121
 115 1 0.0005 2650 0.00939393939394 0.000301 0.00212121212121
 116 1 0.0005 2650 0.01 0.000301 0.00212121212121
 117 1 0.0005 2650 0.0106060606061 0.000301 0.00212121212121
 118 1 0.0005 2650 0.0112121212121 0.000301 0.00212121212121
 119 1 0.0005 2650 0.0118181818182 0.000301 0.00212121212121
 120 1 0.0005 2650 0.0124242424242 0.000301 0.00212121212121
 121 1 0.0005 2650 0.0130303030303 0.000301 0.00212121212121
 122 1 0.0005 2650 0.0136363636364 0.000301 0.00212121212121
 123 1 0.0005 2650 0.0142424242424 0.000301 0.00212121212121
 124 1 0.0005 2650 0.0148484848485 0.000301 0.00212121212121
 125 1 0.0005 2650 0.0154545454545 0.000301 0.00212121212121
 126 1 0.0005 2650 0.0160606060606 0.000301 0.00212121212121
 127 1 0.0005 2650 0.0166666666667 0.000301 0.00212121212121
 128 1 0.0005 2650 0.0172727272727 0.000301 0.00212121212121
 129 1 0.0005 2650 0.0178787878788 0.000301 0.00212121212121
 130 1 0.0005 2650 0.0184848484848 0.000301 0.00212121212121
 131 1 0.0005 2650 0.0190909090909 0.000301 0.00212121212121
 132 1 0.0005 2650 0.019696969697 0.000301 0.00212121212121
 133 1 0.0005 2650 0.00030303030303 0.000301 0.00272727272727
 134 1 0.0005 2650 0.000909090909091 0.000301 0.00272727272727
 135 1 0.0005 2650 0.00151515151515 0.000301 0.00272727272727
 136 1 0.0005 2650 0.00212121212121 0.000301 0.00272727272727
 137 1 0.0005 2650 0.00272727272727 0.000301 0.00272727272727
 138 1 0.0005 2650 0.00333333333333 0.000301 0.00272727272727
 139 1 0.0005 2650 0.00393939393939 0.000301 0.00272727272727
 140 1 0.0005 2650 0.00454545454545 0.000301 0.00272727272727
 141 1 0.0005 2650 0.00515151515152 0.000301 0.00272727272727
 142 1 0.0005 2650 0.00575757575758 0.000301 0.00272727272727
 143 1 0.0005 2650 0.00636363636364 0.000301 0.00272727272727
 144 1 0.0005 2650 0.0069696969697 0.000301 0.00272727272727
 145 1 0.0005 2650 0.00757575757576 0.000301 0.00272727272727
 146 1 0.0005 2650 0.00818181818182 0.000301 0.00272727272727
 147 1 0.0005 2650 0.00878787878788 0.000301 0.00272727272727
 148 1 0.0005 2650 0.00939393939394 0.000301 0.00272727272727
 149 1 0.0005 2650 0.01 0.000301 0.00272727272727
 150 1 0.0005 2650 0.0106060606061 0.000301 0.00272727272727
 151 1 0.0005 2650 0.0112121212121 0.000301 0.00272727272727
 152 1 0.0005 2650 0.0118181818182 0.000301 0.00272727272727
 153 1 0.0005 2650 0.0124242424242 0.000301 0.00272727272727
 154 1 0.0005 2650 0.0130303030303 0.000301 0.00272727272727
 155 1 0.0005 2650 0.0136363636364 0.000301 0.00272727272727
 156 1 0.0005 2650 0.0142424242424 0.000301 0.00272727272727
 157 1 0.0005 2650 0.0148484848485 0.000301 0.00272727272727
 158 1 0.0005 2650 0.0154545454545 0.000301 0.00272727272727
 159 1 0.0005 2650 0.0160606060606 0.000301 0.00272727272727
 160 1 0.0005 2650 0.0166666666667 0.000301 0.00272727272727
 161 1 0.0005 2650 0.0172727272727 0.000301 0.00272727272727
 162 1 0.0005 2650 0.0178787878788 0.000301 0.00272727272727
 163 1 0.0005 2650 0.0184848484848 0.000301 0.00272727272727
 164 1 0.0005 2650 0.0190909090909 0.000301 0.00272727272727
 165 1 0.0005 2650 0.019696969697 0.000301 0.00272727272727
 166 1 0.0005 2650 0.00030303030303 0.000301 0.00333333333333
 167 1 0.0005 2650 0.000909090909091 0.000301 0.00333333333333
 168 1 0.0005 2650 0.00151515151515 0.000301 0.00333333333333
 169 1 0.0005 2650 0.00212121212121 0.000301 0.00333333333333
 170 1 0.0005 2650 0.00272727272727 0.000301 0.00333333333333
 171 1 0.0005 2650 0.00333333333333 0.000301 0.00333333333333
 172 1 0.0005 2650 0.00393939393939 0.000301 0.00333333333333
 173 1 0.0005 2650 0.00454545454545 0.000301 0.00333333333333
 174 1 0.0005 2650 0.00515151515152 0.000301 0.00333333333333
 175 1 0.0005 2650 0.00575757575758 0.000301 0.00333333333333
 176 1 0.0005 2650 0.00636363636364 0.000301 0.00333333333333
 177 1 0.0005 2650 0.0069696969697 0.000301 0.00333333333333
 178 1 0.0005 2650 0.00757575757576 0.000301 0.00333333333333
 179 1 0.0005 2650 0.00818181818182 0.000301 0.00333333333333
 180 1 0.0005 2650 0.00878787878788 0.000301 0.00333333333333
 181 1 0.0005 2650 0.00939393939394 0.000301 0.00333333333333
 182 1 0.0005 2650 0.01 0.000301 0.00333333333333
 183 1 0.0005 2650 0.0106060606061 0.000301 0.00333333333333
 184 1 0.0005 2650 0.0112121212121 0.000301 0.00333333333333
 185 1 0.0005 2650 0.0118181818182 0.000301 0.00333333333333
 186 1 0.0005 2650 0.0124242424242 0.000301 0.00333333333333
 187 1 0.0005 2650 0.0130303030303 0.000301 0.00333333333333
 188 1 0.0005 2650 0.0136363636364 0.000301 0.00333333333333
 189 1 0.0005 2650 0.0142424242424 0.000301 0.00333333333333
 190 1 0.0005 2650 0.0148484848485 0.000301 0.00333333333333
 191 1 0.0005 2650 0.0154545454545 0.000301 0.00333333333333
 192 1 0.0005 2650 0.0160606060606 0.000301 0.00333333333333
 193 1 0.0005 2650 0.0166666666667 0.000301 0.00333333333333
 194 1 0.0005 2650 0.0172727272727 0.000301 0.00333333333333
 195 1 0.0005 2650 0.0178787878788 0.000301 0.00333333333333
 196 1 0.0005 2650 0.0184848484848 0.000301 0.00333333333333
 197 1 0.0005 2650 0.0190909090909 0.000301 0.00333333333333
 198 1 0.0005 2650 0.019696969697 0.000301 0.00333333333333
 199 1 0.0005 2650 0.00030303030303 0.000301 0.00393939393939
 200 1 0.0005 2650 0.000909090909091 0.000301 0.00393939393939
 201 1 0.0005 2650 0.00151515151515 0.000301 0.00393939393939
 202 1 0.0005 2650 0.00212121212121 0.000301 0.00393939393939
 203 1 0.0005 2650 0.00272727272727 0.000301 0.00393939393939
 204 1 0.0005 2650 0.00333333333333 0.000301 0.00393939393939
 205 1 0.0005 2650 0.00393939393939 0.000301 0.00393939393939
 206 1 0.0005 2650 0.00454545454545 0.000301 0.00393939393939
 207 1 0.0005 2650 0.00515151515152 0.000301 0.00393939393939
 208 1 0.0005 2650 0.00575757575758 0.000301 0.00393939393939
 209 1 0.0005 2650 0.00636363636364 0.000301 0.00393939393939
 210 1 0.0005 2650 0.0069696969697 0.000301 0.00393939393939
 211 1 0.0005 2650 0.00757575757576 0.000301 0.00393939393939
 212 1 0.0005 2650 0.00818181818182 0.000301 0.00393939393939
 213 1 0.0005 2650 0.00878787878788 0.000301 0.00393939393939
 214 1 0.0005 2650 0.00939393939394 0.000301 0.00393939393939
 215 1 0.0005 2650 0.01 0.000301 0.00393939393939
 216 1 0.0005 2650 0.0106060606061 0.000301 0.00393939393939
 217 1 0.0005 2650 0.0112121212121 0.000301 0.00393939393939
 218 1 0.0005 2650 0.0118181818182 0.000301 0.00393939393939
 219 1 0.0005 2650 0.0124242424242 0.000301 0.00393939393939
 220 1 0.0005 2650 0.0130303030303 0.000301 0.00393939393939
 221 1 0.0005 2650 0.0136363636364 0.000301 0.00393939393939
 222 1 0.0005 2650 0.0142424242424 0.000301 0.00393939393939
 223 1 0.0005 2650 0.0148484848485 0.000301 0.00393939393939
 224 1 0.0005 2650 0.0154545454545 0.000301 0.00393939393939
 225 1 0.0005 2650 0.0160606060606 0.000301 0.00393939393939
 226 1 0.0005 2650 0.0166666666667 0.000301 0.00393939393939
 227 1 0.0005 2650 0.0172727272727 0.000301 0.00393939393939
 228 1 0.0005 2650 0.0178787878788 0.000301 0.00393939393939
 229 1 0.0005 2650 0.0184848484848 0.000301 0.00393939393939
 230 1 0.0005 2650 0.0190909090909 0.000301 0.00393939393939
 231 1 0.0005 2650 0.019696969697 0.000301 0.00393939393939
 232 1 0.0005 2650 0.00030303030303 0.000301 0.00454545454545
 233 1 0.0005 2650 0.000909090909091 0.000301 0.00454545454545
 234 1 0.0005 2650 0.00151515151515 0.000301 0.00454545454545
 235 1 0.0005 2650 0.00212121212121 0.000301 0.00454545454545
 236 1 0.0005 2650 0.00272727272727 0.000301 0.00454545454545
 237 1 0.0005 2650 0.00333333333333 0.000301 0.00454545454545
 238 1 0.0005 2650 0.00393939393939 0.000301 0.00454545454545
 239 1 0.0005 2650 0.00454545454545 0.000301 0.00454545454545
 240 1 0.0005 2650 0.00515151515152 0.000301 0.00454545454545
 241 1 0.0005 2650 0.00575757575758 0.000301 0.00454545454545
 242 1 0.0005 2650 0.00636363636364 0.000301 0.00454545454545
 243 1 0.0005 2650 0.0069696969697 0.000301 0.00454545454545
 244 1 0.0005 2650 0.00757575757576 0.000301 0.00454545454545
 245 1 0.0005 2650 0.00818181818182 0.000301 0.00454545454545
 246 1 0.0005 2650 0.00878787878788 0.000301 0.00454545454545
 247 1 0.0005 2650 0.00939393939394 0.000301 0.00454545454545
 248 1 0.0005 2650 0.01 0.000301 0.00454545454545
 249 1 0.0005 2650 0.0106060606061 0.000301 0.00454545454545
 250 1 0.0005 2650 0.0112121212121 0.000301 0.00454545454545
 251 1 0.0005 2650 0.0118181818182 0.000301 0.00454545454545
 252 1 0.0005 2650 0.0124242424242 0.000301 0.00454545454545
 253 1 0.0005 2650 0.0130303030303 0.000301 0.00454545454545
 254 1 0.0005 2650 0.0136363636364 0.000301 0.00454545454545
 255 1 0.0005 2650 0.0142424242424 0.000301 0.00454545454545
 256 1 0.0005 2650 0.0148484848485 0.000301 0.00454545454545
 257 1 0.0005 2650 0.0154545454545 0.000301 0.00454545454545
 258 1 0.0005 2650 0.0160606060606 0.000301 0.00454545454545
 259 1 0.0005 2650 0.0166666666667 0.000301 0.00454545454545
 260 1 0.0005 2650 0.0172727272727 0.000301 0.00454545454545
 261 1 0.0005 2650 0.0178787878788 0.000301 0.00454545454545
 262 1 0.0005 2650 0.0184848484848 0.000301 0.00454545454545
 263 1 0.0005 2650 0.0190909090909 0.000301 0.00454545454545
 264 1 0.0005 2650 0.019696969697 0.000301 0.00454545454545
 265 1 0.0005 2650 0.00030303030303 0.000301 0.00515151515152
 266 1 0.0005 2650 0.000909090909091 0.000301 0.00515151515152
 267 1 0.0005 2650 0.00151515151515 0.000301 0.00515151515152
 268 1 0.0005 2650 0.00212121212121 0.000301 0.00515151515152
 269 1 0.0005 2650 0.00272727272727 0.000301 0.00515151515152
 270 1 0.0005 2650 0.00333333333333 0.000301 0.00515151515152
 271 1 0.0005 2650 0.00393939393939 0.000301 0.00515151515152
 272 1 0.0005 2650 0.00454545454545 0.000301 0.00515151515152
 273 1 0.0005 2650 0.00515151515152 0.000301 0.00515151515152
 274 1 0.0005 2650 0.00575757575758 0.000301 0.00515151515152
 275 1 0.0005 2650 0.00636363636364 0.000301 0.00515151515152
 276 1 0.0005 2650 0.0069696969697 0.000301 0.00515151515152
 277 1 0.0005 2650 0.00757575757576 0.000301 0.00515151515152
 278 1 0.0005 2650 0.00818181818182 0.000301 0.00515151515152
 279 1 0.0005 2650 0.00878787878788 0.000301 0.00515151515152
 280 1 0.0005 2650 0.00939393939394 0.000301 0.00515151515152
 281 1 0.0005 2650 0.01 0.000301 0.00515151515152
 282 1 0.0005 2650 0.0106060606061 0.000301 0.00515151515152
 283 1 0.0005 2650 0.0112121212121 0.000301 0.00515151515152
 284 1 0.0005 2650 0.0118181818182 0.000301 0.00515151515152
 285 1 0.0005 2650 0.0124242424242 0.000301 0.00515151515152
 286 1 0.0005 2650 0.0130303030303 0.000301 0.00515151515152
 287 1 0.0005 2650 0.0136363636364 0.000301 0.00515151515152
 288 1 0.0005 2650 0.0142424242424 0.000301 0.00515151515152
 289 1 0.0005 2650 0.0148484848485 0.000301 0.00515151515152
 290 1 0.0005 2650 0.0154545454545 0.000301 0.00515151515152
 291 1 0.0005 2650 0.0160606060606 0.000301 0.00515151515152
 292 1 0.0005 2650 0.0166666666667 0.000301 0.00515151515152
 293 1 0.0005 2650 0.0172727272727 0.000301 0.00515151515152
 294 1 0.0005 2650 0.0178787878788 0.000301 0.00515151515152
 295 1 0.0005 2650 0.0184848484848 0.000301 0.00515151515152
 296 1 0.0005 2650 0.0190909090909 0.000301 0.00515151515152
 297 1 0.0005 2650 0.019696969697 0.000301 0.00515151515152
 298 1 0.0005 2650 0.00030303030303 0.000301 0.00575757575758
 299 1 0.0005 2650 0.000909090909091 0.000301 0.00575757575758
 300 1 0.0005 2650 0.00151515151515 0.000301 0.00575757575758
 301 1 0.0005 2650 0.00212121212121 0.000301 0.00575757575758
 302 1 0.0005 2650 0.00272727272727 0.000301 0.00575757575758
 303 1 0.0005 2650 0.00333333333333 0.000301 0.00575757575758
 304 1 0.0005 2650 0.00393939393939 0.000301 0.00575757575758
 305 1 0.0005 2650 0.00454545454545 0.000301 0.00575757575758
 306 1 0.0005 2650 0.00515151515152 0.000301 0.00575757575758
 307 1 0.0005 2650 0.00575757575758 0.000301 0.00575757575758
 308 1 0.0005 2650 0.00636363636364 0.000301 0.00575757575758
 309 1 0.0005 2650 0.0069696969697 0.000301 0.00575757575758
 310 1 0.0005 2650 0.00757575757576 0.000301 0.00575757575758
 311 1 0.0005 2650 0.00818181818182 0.000301 0.00575757575758
 312 1 0.0005 2650 0.00878787878788 0.000301 0.00575757575758
 313 1 0.0005 2650 0.00939393939394 0.000301 0.00575757575758
 314 1 0.0005 2650 0.01 0.000301 0.00575757575758
 315 1 0.0005 2650 0.0106060606061 0.000301 0.00575757575758
 316 1 0.0005 2650 0.0112121212121 0.000301 0.00575757575758
 317 1 0.0005 2650 0.0118181818182 0.000301 0.00575757575758
 318 1 0.0005 2650 0.0124242424242 0.000301 0.00575757575758
 319 1 0.0005 2650 0.0130303030303 0.000301 0.00575757575758
 320 1 0.0005 2650 0.0136363636364 0.000301 0.00575757575758
 321 1 0.0005 2650 0.0142424242424 0.000301 0.00575757575758
 322 1 0.0005 2650 0.0148484848485 0.000301 0.00575757575758
 323 1 0.0005 2650 0.0154545454545 0.000301 0.00575757575758
 324 1 0.0005 2650 0.0160606060606 0.000301 0.00575757575758
 325 1 0.0005 2650 0.0166666666667 0.000301 0.00575757575758
 326 1 0.0005 2650 0.0172727272727 0.000301 0.00575757575758
 327 1 0.0005 2650 0.0178787878788 0.000301 0.00575757575758
 328 1 0.0005 2650 0.0184848484848 0.000301 0.00575757575758
 329 1 0.0005 2650 0.0190909090909 0.000301 0.00575757575758
 330 1 0.0005 2650 0.019696969697 0.000301 0.00575757575758
 331 1 0.0005 2650 0.00030303030303 0.000301 0.00636363636364
 332 1 0.0005 2650 0.000909090909091 0.000301 0.00636363636364
 333 1 0.0005 2650 0.00151515151515 0.000301 0.00636363636364
 334 1 0.0005 2650 0.00212121212121 0.000301 0.00636363636364
 335 1 0.0005 2650 0.00272727272727 0.000301 0.00636363636364
 336 1 0.0005 2650 0.00333333333333 0.000301 0.00636363636364
 337 1 0.0005 2650 0.00393939393939 0.000301 0.00636363636364
 338 1 0.0005 2650 0.00454545454545 0.000301 0.00636363636364
 339 1 0.0005 2650 0.00515151515152 0.000301 0.00636363636364
 340 1 0.0005 2650 0.00575757575758 0.000301 0.00636363636364
 341 1 0.0005 2650 0.00636363636364 0.000301 0.00636363636364
 342 1 0.0005 2650 0.0069696969697 0.000301 0.00636363636364
 343 1 0.0005 2650 0.00757575757576 0.000301 0.00636363636364
 344 1 0.0005 2650 0.00818181818182 0.000301 0.00636363636364
 345 1 0.0005 2650 0.00878787878788 0.000301 0.00636363636364
 346 1 0.0005 2650 0.00939393939394 0.000301 0.00636363636364
 347 1 0.0005 2650 0.01 0.000301 0.00636363636364
 348 1 0.0005 2650 0.0106060606061 0.000301 0.00636363636364
 349 1 0.0005 2650 0.0112121212121 0.000301 0.00636363636364
 350 1 0.0005 2650 0.0118181818182 0.000301 0.00636363636364
 351 1 0.0005 2650 0.0124242424242 0.000301 0.00636363636364
 352 1 0.0005 2650 0.0130303030303 0.000301 0.00636363636364
 353 1 0.0005 2650 0.0136363636364 0.000301 0.00636363636364
 354 1 0.0005 2650 0.0142424242424 0.000301 0.00636363636364
 355 1 0.0005 2650 0.0148484848485 0.000301 0.00636363636364
 356 1 0.0005 2650 0.0154545454545 0.000301 0.00636363636364
 357 1 0.0005 2650 0.0160606060606 0.000301 0.00636363636364
 358 1 0.0005 2650 0.0166666666667 0.000301 0.00636363636364
 359 1 0.0005 2650 0.0172727272727 0.000301 0.00636363636364
 360 1 0.0005 2650 0.0178787878788 0.000301 0.00636363636364
 361 1 0.0005 2650 0.0184848484848 0.000301 0.00636363636364
 362 1 0.0005 2650 0.0190909090909 0.000301 0.00636363636364
 363 1 0.0005 2650 0.019696969697 0.000301 0.00636363636364
 364 1 0.0005 2650 0.00030303030303 0.000301 0.0069696969697
 365 1 0.0005 2650 0.000909090909091 0.000301 0.0069696969697
 366 1 0.0005 2650 0.00151515151515 0.000301 0.0069696969697
 367 1 0.0005 2650 0.00212121212121 0.000301 0.0069696969697
 368 1 0.0005 2650 0.00272727272727 0.000301 0.0069696969697
 369 1 0.0005 2650 0.00333333333333 0.000301 0.0069696969697
 370 1 0.0005 2650 0.00393939393939 0.000301 0.0069696969697
 371 1 0.0005 2650 0.00454545454545 0.000301 0.0069696969697
 372 1 0.0005 2650 0.00515151515152 0.000301 0.0069696969697
 373 1 0.0005 2650 0.00575757575758 0.000301 0.0069696969697
 374 1 0.0005 2650 0.00636363636364 0.000301 0.0069696969697
 375 1 0.0005 2650 0.0069696969697 0.000301 0.0069696969697
 376 1 0.0005 2650 0.00757575757576 0.000301 0.0069696969697
 377 1 0.0005 2650 0.00818181818182 0.000301 0.0069696969697
 378 1 0.0005 2650 0.00878787878788 0.000301 0.0069696969697
 379 1 0.0005 2650 0.00939393939394 0.000301 0.0069696969697
 380 1 0.0005 2650 0.01 0.000301 0.0069696969697
 381 1 0.0005 2650 0.0106060606061 0.000301 0.0069696969697
 382 1 0.0005 2650 0.0112121212121 0.000301 0.0069696969697
 383 1 0.0005 2650 0.0118181818182 0.000301 0.0069696969697
 384 1 0.0005 2650 0.0124242424242 0.000301 0.0069696969697
 385 1 0.0005 2650 0.0130303030303 0.000301 0.0069696969697
 386 1 0.0005 2650 0.0136363636364 0.000301 0.0069696969697
 387 1 0.0005 2650 0.0142424242424 0.000301 0.0069696969697
 388 1 0.0005 2650 0.0148484848485 0.000301 0.0069696969697
 389 1 0.0005 2650 0.0154545454545 0.000301 0.0069696969697
 390 1 0.0005 2650 0.0160606060606 0.000301 0.0069696969697
 391 1 0.0005 2650 0.0166666666667 0.000301 0.0069696969697
 392 1 0.0005 2650 0.0172727272727 0.000301 0.0069696969697
 393 1 0.0005 2650 0.0178787878788 0.000301 0.0069696969697
 394 1 0.0005 2650 0.0184848484848 0.000301 0.0069696969697
 395 1 0.0005 2650 0.0190909090909 0.000301 0.0069696969697
 396 1 0.0005 2650 0.019696969697 0.000301 0.0069696969697
 397 1 0.0005 2650 0.00030303030303 0.000301 0.00757575757576
 398 1 0.0005 2650 0.000909090909091 0.000301 0.00757575757576
 399 1 0.0005 2650 0.00151515151515 0.000301 0.00757575757576
 400 1 0.0005 2650 0.00212121212121 0.000301 0.00757575757576
 401 1 0.0005 2650 0.00272727272727 0.000301 0.00757575757576
 402 1 0.0005 2650 0.00333333333333 0.000301 0.00757575757576
 403 1 0.0005 2650 0.00393939393939 0.000301 0.00757575757576
 404 1 0.0005 2650 0.00454545454545 0.000301 0.00757575757576
 405 1 0.0005 2650 0.00515151515152 0.000301 0.00757575757576
 406 1 0.0005 2650 0.00575757575758 0.000301 0.00757575757576
 407 1 0.0005 2650 0.00636363636364 0.000301 0.00757575757576
 408 1 0.0005 2650 0.0069696969697 0.000301 0.00757575757576
 409 1 0.0005 2650 0.00757575757576 0.000301 0.00757575757576
 410 1 0.0005 2650 0.00818181818182 0.000301 0.00757575757576
 411 1 0.0005 2650 0.00878787878788 0.000301 0.00757575757576
 412 1 0.0005 2650 0.00939393939394 0.000301 0.00757575757576
 413 1 0.0005 2650 0.01 0.000301 0.00757575757576
 414 1 0.0005 2650 0.0106060606061 0.000301 0.00757575757576
 415 1 0.0005 2650 0.0112121212121 0.000301 0.00757575757576
 416 1 0.0005 2650 0.0118181818182 0.000301 0.00757575757576
 417 1 0.0005 2650 0.0124242424242 0.000301 0.00757575757576
 418 1 0.0005 2650 0.0130303030303 0.000301 0.00757575757576
 419 1 0.0005 2650 0.0136363636364 0.000301 0.00757575757576
 420 1 0.0005 2650 0.0142424242424 0.000301 0.00757575757576
 421 1 0.0005 2650 0.0148484848485 0.000301 0.00757575757576
 422 1 0.0005 2650 0.0154545454545 0.000301 0.00757575757576
 423 1 0.0005 2650 0.0160606060606 0.000301 0.00757575757576
 424 1 0.0005 2650 0.0166666666667 0.000301 0.00757575757576
 425 1 0.0005 2650 0.0172727272727 0.000301 0.00757575757576
 426 1 0.0005 2650 0.0178787878788 0.000301 0.00757575757576
 427 1 0.0005 2650 0.0184848484848 0.000301 0.00757575757576
 428 1 0.0005 2650 0.0190909090909 0.000301 0.00757575757576
 429 1 0.0005 2650 0.019696969697 0.000301 0.00757575757576
 430 1 0.0005 2650 0.00030303030303 0.000301 0.00818181818182
 431 1 0.0005 2650 0.000909090909091 0.000301 0.00818181818182
 432 1 0.0005 2650 0.00151515151515 0.000301 0.00818181818182
 433 1 0.0005 2650 0.00212121212121 0.000301 0.00818181818182
 434 1 0.0005 2650 0.00272727272727 0.000301 0.00818181818182
 435 1 0.0005 2650 0.00333333333333 0.000301 0.00818181818182
 436 1 0.0005 2650 0.00393939393939 0.000301 0.00818181818182
 437 1 0.0005 2650 0.00454545454545 0.000301 0.00818181818182
 438 1 0.0005 2650 0.00515151515152 0.000301 0.00818181818182
 439 1 0.0005 2650 0.00575757575758 0.000301 0.00818181818182
 440 1 0.0005 2650 0.00636363636364 0.000301 0.00818181818182
 441 1 0.0005 2650 0.0069696969697 0.000301 0.00818181818182
 442 1 0.0005 2650 0.00757575757576 0.000301 0.00818181818182
 443 1 0.0005 2650 0.00818181818182 0.000301 0.00818181818182
 444 1 0.0005 2650 0.00878787878788 0.000301 0.00818181818182
 445 1 0.0005 2650 0.00939393939394 0.000301 0.00818181818182
 446 1 0.0005 2650 0.01 0.000301 0.00818181818182
 447 1 0.0005 2650 0.0106060606061 0.000301 0.00818181818182
 448 1 0.0005 2650 0.0112121212121 0.000301 0.00818181818182
 449 1 0.0005 2650 0.0118181818182 0.000301 0.00818181818182
 450 1 0.0005 2650 0.0124242424242 0.000301 0.00818181818182
 451 1 0.0005 2650 0.0130303030303 0.000301 0.00818181818182
 452 1 0.0005 2650 0.0136363636364 0.000301 0.00818181818182
 453 1 0.0005 2650 0.0142424242424 0.000301 0.00818181818182
 454 1 0.0005 2650 0.0148484848485 0.000301 0.00818181818182
 455 1 0.0005 2650 0.0154545454545 0.000301 0.00818181818182
 456 1 0.0005 2650 0.0160606060606 0.000301 0.00818181818182
 457 1 0.0005 2650 0.0166666666667 0.000301 0.00818181818182
 458 1 0.0005 2650 0.0172727272727 0.000301 0.00818181818182
 459 1 0.0005 2650 0.0178787878788 0.000301 0.00818181818182
 460 1 0.0005 2650 0.0184848484848 0.000301 0.00818181818182
 461 1 0.0005 2650 0.0190909090909 0.000301 0.00818181818182
 462 1 0.0005 2650 0.019696969697 0.000301 0.00818181818182
 463 1 0.0005 2650 0.00030303030303 0.000301 0.00878787878788
 464 1 0.0005 2650 0.000909090909091 0.000301 0.00878787878788
 465 1 0.0005 2650 0.00151515151515 0.000301 0.00878787878788
 466 1 0.0005 2650 0.00212121212121 0.000301 0.00878787878788
 467 1 0.0005 2650 0.00272727272727 0.000301 0.00878787878788
 468 1 0.0005 2650 0.00333333333333 0.000301 0.00878787878788
 469 1 0.0005 2650 0.00393939393939 0.000301 0.00878787878788
 470 1 0.0005 2650 0.00454545454545 0.000301 0.00878787878788
 471 1 0.0005 2650 0.00515151515152 0.000301 0.00878787878788
 472 1 0.0005 2650 0.00575757575758 0.000301 0.00878787878788
 473 1 0.0005 2650 0.00636363636364 0.000301 0.00878787878788
 474 1 0.0005 2650 0.0069696969697 0.000301 0.00878787878788
 475 1 0.0005 2650 0.00757575757576 0.000301 0.00878787878788
 476 1 0.0005 2650 0.00818181818182 0.000301 0.00878787878788
 477 1 0.0005 2650 0.00878787878788 0.000301 0.00878787878788
 478 1 0.0005 2650 0.00939393939394 0.000301 0.00878787878788
 479 1 0.0005 2650 0.01 0.000301 0.00878787878788
 480 1 0.0005 2650 0.0106060606061 0.000301 0.00878787878788
 481 1 0.0005 2650 0.0112121212121 0.000301 0.00878787878788
 482 1 0.0005 2650 0.0118181818182 0.000301 0.00878787878788
 483 1 0.0005 2650 0.0124242424242 0.000301 0.00878787878788
 484 1 0.0005 2650 0.0130303030303 0.000301 0.00878787878788
 485 1 0.0005 2650 0.0136363636364 0.000301 0.00878787878788
 486 1 0.0005 2650 0.0142424242424 0.000301 0.00878787878788
 487 1 0.0005 2650 0.0148484848485 0.000301 0.00878787878788
 488 1 0.0005 2650 0.0154545454545 0.000301 0.00878787878788
 489 1 0.0005 2650 0.0160606060606 0.000301 0.00878787878788
 490 1 0.0005 2650 0.0166666666667 0.000301 0.00878787878788