 Granular Flow simulation

        2160  atoms
           2  atom types

   0.000000      4.0E-02  xlo xhi
   0.000000      0.2      ylo yhi
   0.000000      7.5E-03  zlo zhi

 Atoms

     1   2 1.50000E-03  2.00000E+03  1.01990E-03  7.49978E-04  2.22549E-03
     2   2 1.50000E-03  2.00000E+03  9.47960E-03  7.49887E-04  8.73782E-04
     3   2 1.50000E-03  2.00000E+03  1.32040E-02  7.49735E-04  3.68883E-03
     4   2 1.50000E-03  2.00000E+03  1.51481E-02  1.80249E-03  7.49993E-04
     5   2 1.50000E-03  2.00000E+03  2.07054E-02  7.49915E-04  7.49873E-04
     6   2 1.50000E-03  2.00000E+03  2.15812E-02  7.49870E-04  1.96757E-03
     7   1 1.50000E-03  2.00000E+03  2.71100E-02  7.49579E-04  7.49990E-04
     8   1 1.50000E-03  2.00000E+03  3.10254E-02  7.49676E-04  2.52784E-03
     9   2 1.50000E-03  2.00000E+03  3.53138E-02  7.49965E-04  7.52312E-04
    10   2 1.50000E-03  2.00000E+03  3.68138E-02  7.49878E-04  7.49931E-04
    11   2 1.50000E-03  2.00000E+03  4.98503E-03  7.49974E-04  7.49892E-04
    12   2 1.50000E-03  2.00000E+03  2.24990E-03  7.49990E-04  5.40697E-03
    13   1 1.50000E-03  2.00000E+03  1.10625E-02  7.49546E-04  7.49565E-04
    14   1 1.50000E-03  2.00000E+03  1.36349E-02  7.49883E-04  2.19647E-03
    15   2 1.50000E-03  2.00000E+03  1.69768E-02  2.07853E-03  7.49788E-04
    16   2 1.50000E-03  2.00000E+03  1.68520E-02  7.49680E-04  5.24196E-03
    17   2 1.50000E-03  2.00000E+03  2.24570E-02  7.49663E-04  7.49851E-04
    18   2 1.50000E-03  2.00000E+03  2.91119E-02  7.49921E-04  3.10860E-03
    19   2 1.50000E-03  2.00000E+03  3.67114E-02  1.91811E-03  3.83469E-03
    20   2 1.50000E-03  2.00000E+03  3.92500E-02  3.73917E-03  7.49957E-04
    21   2 1.50000E-03  2.00000E+03  2.25157E-03  7.49793E-04  7.49891E-04
    22   2 1.50000E-03  2.00000E+03  8.30296E-03  7.49895E-04  3.15777E-03
    23   2 1.50000E-03  2.00000E+03  7.21955E-03  7.49694E-04  2.05739E-03
    24   2 1.50000E-03  2.00000E+03  1.14726E-02  7.49830E-04  4.03882E-03
    25   2 1.50000E-03  2.00000E+03  1.77089E-02  7.49993E-04  9.04412E-04
    26   2 1.50000E-03  2.00000E+03  3.43206E-02  7.49986E-04  3.53432E-03
    27   2 1.50000E-03  2.00000E+03  2.54728E-02  7.49922E-04  1.09918E-03
    28   2 1.50000E-03  2.00000E+03  2.98268E-02  1.49593E-03  2.02139E-03
    29   2 1.50000E-03  2.00000E+03  3.60707E-02  7.52159E-04  2.05292E-03
    30   2 1.50000E-03  2.00000E+03  3.76282E-02  7.49993E-04  3.20339E-03
    31   2 1.50000E-03  2.00000E+03  7.49997E-04  7.49870E-04  7.49985E-04
    32   2 1.50000E-03  2.00000E+03  2.50925E-03  7.49561E-04  2.40390E-03
    33   2 1.50000E-03  2.00000E+03  7.98479E-03  7.49995E-04  7.49985E-04
    34   2 1.50000E-03  2.00000E+03  1.76047E-02  7.49892E-04  3.43362E-03
    35   2 1.50000E-03  2.00000E+03  2.33020E-02  2.07151E-03  4.64583E-03
    36   2 1.50000E-03  2.00000E+03  1.99532E-02  7.49813E-04  2.04754E-03
    37   2 1.50000E-03  2.00000E+03  3.18419E-02  7.49772E-04  6.73312E-03
    38   2 1.50000E-03  2.00000E+03  2.90847E-02  7.49973E-04  7.49954E-04
    39   2 1.50000E-03  2.00000E+03  3.79433E-02  7.49908E-04  1.73688E-03
    40   2 1.50000E-03  2.00000E+03  3.79647E-02  2.17234E-03  2.21223E-03
    41   2 1.50000E-03  2.00000E+03  6.46887E-03  2.02412E-03  1.80781E-03
    42   2 1.50000E-03  2.00000E+03  6.48486E-03  7.49984E-04  7.49846E-04
    43   2 1.50000E-03  2.00000E+03  1.02665E-02  2.02075E-03  7.49928E-04
    44   2 1.50000E-03  2.00000E+03  1.14523E-02  1.79960E-03  1.74660E-03
    45   2 1.50000E-03  2.00000E+03  1.62169E-02  7.49993E-04  7.50000E-04
    46   2 1.50000E-03  2.00000E+03  2.22724E-02  7.49926E-04  6.63007E-03
    47   2 1.50000E-03  2.00000E+03  2.47207E-02  7.49955E-04  4.23070E-03
    48   2 1.50000E-03  2.00000E+03  3.45707E-02  7.49832E-04  2.05532E-03
    49   2 1.50000E-03  2.00000E+03  3.34543E-02  7.49807E-04  1.05320E-03
    50   2 1.50000E-03  2.00000E+03  3.64861E-02  3.96588E-03  5.95979E-03
    51   1 1.50000E-03  2.00000E+03  1.61402E-02  7.49786E-04  3.10975E-03
    52   1 1.50000E-03  2.00000E+03  2.32422E-02  7.49540E-04  3.94027E-03
    53   2 1.50000E-03  2.00000E+03  2.48648E-02  2.24032E-03  6.75008E-03
    54   2 1.50000E-03  2.00000E+03  2.76503E-02  3.20375E-03  6.75012E-03
    55   2 1.50000E-03  2.00000E+03  1.84761E-02  2.06207E-03  7.85973E-04
    56   2 1.50000E-03  2.00000E+03  1.83440E-02  7.49819E-04  5.08844E-03
    57   2 1.50000E-03  2.00000E+03  1.70933E-02  7.49835E-04  6.72242E-03
    58   1 1.50000E-03  2.00000E+03  2.51882E-02  7.49959E-04  2.76884E-03
    59   2 1.50000E-03  2.00000E+03  3.42926E-02  7.49807E-04  5.03406E-03
    60   2 1.50000E-03  2.00000E+03  3.79545E-02  1.37447E-03  6.75003E-03
    61   2 1.50000E-03  2.00000E+03  7.49972E-04  2.04090E-03  2.94004E-03
    62   2 1.50000E-03  2.00000E+03  6.69471E-03  7.49661E-04  4.62566E-03
    63   2 1.50000E-03  2.00000E+03  1.08312E-02  1.73794E-03  3.11050E-03
    64   2 1.50000E-03  2.00000E+03  1.28913E-02  7.49873E-04  5.27142E-03
    65   2 1.50000E-03  2.00000E+03  1.54841E-02  3.27161E-03  6.75020E-03
    66   2 1.50000E-03  2.00000E+03  2.41201E-02  1.82756E-03  3.37749E-03
    67   2 1.50000E-03  2.00000E+03  2.62546E-02  1.98144E-03  7.49893E-04
    68   1 1.50000E-03  2.00000E+03  3.04638E-02  7.49990E-04  3.91876E-03
    69   2 1.50000E-03  2.00000E+03  3.00751E-02  2.97519E-03  2.02458E-03
    70   2 1.50000E-03  2.00000E+03  3.92501E-02  2.23923E-03  7.49844E-04
    71   2 1.50000E-03  2.00000E+03  3.64604E-03  7.49737E-04  1.42554E-03
    72   2 1.50000E-03  2.00000E+03  8.26194E-03  2.97539E-03  5.45987E-03
    73   1 1.50000E-03  2.00000E+03  9.38578E-03  1.68770E-03  2.71285E-03
    74   2 1.50000E-03  2.00000E+03  1.24909E-02  7.49926E-04  1.22635E-03
    75   1 1.50000E-03  2.00000E+03  1.84612E-02  7.49993E-04  2.20215E-03
    76   2 1.50000E-03  2.00000E+03  1.92009E-02  7.49606E-04  7.49878E-04
    77   1 1.50000E-03  2.00000E+03  3.25219E-02  7.49790E-04  2.22812E-03
    78   2 1.50000E-03  2.00000E+03  3.13721E-02  7.49864E-04  5.18884E-03
    79   2 1.50000E-03  2.00000E+03  3.92502E-02  2.93370E-03  2.07923E-03
    80   2 1.50000E-03  2.00000E+03  3.81147E-02  3.28285E-03  5.55775E-03
    81   2 1.50000E-03  2.00000E+03  7.49831E-04  2.24975E-03  7.49870E-04
    82   2 1.50000E-03  2.00000E+03  7.52134E-03  2.17659E-03  7.49983E-04
    83   2 1.50000E-03  2.00000E+03  1.03010E-02  2.69838E-03  2.08762E-03
    84   2 1.50000E-03  2.00000E+03  1.20899E-02  7.49986E-04  2.67174E-03
    85   2 1.50000E-03  2.00000E+03  1.50861E-02  7.49947E-04  1.81689E-03
    86   2 1.50000E-03  2.00000E+03  2.25970E-02  1.47663E-03  2.79809E-03
    87   2 1.50000E-03  2.00000E+03  2.72629E-02  1.64207E-03  4.42672E-03
    88   2 1.50000E-03  2.00000E+03  2.86656E-02  2.46208E-03  2.03606E-03
    89   2 1.50000E-03  2.00000E+03  3.43591E-02  1.90686E-03  7.49801E-04
    90   2 1.50000E-03  2.00000E+03  3.40063E-02  7.49920E-04  6.50647E-03
    91   2 1.50000E-03  2.00000E+03  7.44354E-03  3.27163E-03  1.79152E-03
    92   2 1.50000E-03  2.00000E+03  4.27868E-03  2.01216E-03  1.93137E-03
    93   1 1.50000E-03  2.00000E+03  1.28619E-02  2.03519E-03  2.20151E-03
    94   2 1.50000E-03  2.00000E+03  1.25835E-02  3.28352E-03  4.14605E-03
    95   2 1.50000E-03  2.00000E+03  1.51783E-02  1.89320E-03  4.11457E-03
    96   1 1.50000E-03  2.00000E+03  1.84105E-02  2.91820E-03  2.01587E-03
    97   2 1.50000E-03  2.00000E+03  3.52875E-02  1.49099E-03  6.75003E-03
    98   2 1.50000E-03  2.00000E+03  2.95060E-02  2.22420E-03  7.49955E-04
    99   1 1.50000E-03  2.00000E+03  2.83409E-02  2.02011E-03  3.43220E-03
   100   2 1.50000E-03  2.00000E+03  3.25093E-02  1.98791E-03  3.07453E-03
   101   2 1.50000E-03  2.00000E+03  3.83869E-03  2.04497E-03  6.75000E-03
   102   2 1.50000E-03  2.00000E+03  2.23544E-03  3.01380E-03  4.25085E-03
   103   2 1.50000E-03  2.00000E+03  2.26166E-03  2.05586E-03  3.09749E-03
   104   2 1.50000E-03  2.00000E+03  2.08851E-03  3.07350E-03  7.49884E-04
   105   2 1.50000E-03  2.00000E+03  1.33880E-03  3.18622E-03  2.17105E-03
   106   1 1.50000E-03  2.00000E+03  7.10180E-03  2.04605E-03  5.26027E-03
   107   2 1.50000E-03  2.00000E+03  3.05350E-02  1.13279E-03  7.49973E-04
   108   2 1.50000E-03  2.00000E+03  3.19853E-02  7.49981E-04  7.49990E-04
   109   2 1.50000E-03  2.00000E+03  3.55984E-02  5.10601E-03  6.36195E-03
   110   2 1.50000E-03  2.00000E+03  3.36751E-02  3.24732E-03  7.72536E-04
   111   2 1.50000E-03  2.00000E+03  7.49795E-04  4.55667E-03  2.01425E-03
   112   2 1.50000E-03  2.00000E+03  7.09457E-03  3.40250E-03  4.62034E-03
   113   2 1.50000E-03  2.00000E+03  8.92663E-03  2.67478E-03  9.14093E-04
   114   2 1.50000E-03  2.00000E+03  9.14534E-03  1.76495E-03  5.39550E-03
   115   2 1.50000E-03  2.00000E+03  1.61981E-02  1.74213E-03  1.98664E-03
   116   2 1.50000E-03  2.00000E+03  2.45119E-02  3.69802E-03  6.74998E-03
   117   2 1.50000E-03  2.00000E+03  2.47552E-02  2.01994E-03  7.50005E-04
   118   2 1.50000E-03  2.00000E+03  2.69968E-02  3.41237E-03  5.41619E-03
   119   2 1.50000E-03  2.00000E+03  3.20134E-02  2.94335E-03  6.58427E-03
   120   2 1.50000E-03  2.00000E+03  3.83697E-02  4.02168E-03  2.61827E-03
   121   2 1.50000E-03  2.00000E+03  5.43154E-03  1.96532E-03  2.88968E-03
   122   2 1.50000E-03  2.00000E+03  1.04436E-02  3.51008E-03  7.49950E-04
   123   2 1.50000E-03  2.00000E+03  1.22959E-02  3.11221E-03  6.75015E-03
   124   2 1.50000E-03  2.00000E+03  1.08048E-02  4.10348E-03  2.23505E-03
   125   1 1.50000E-03  2.00000E+03  1.49884E-02  2.62664E-03  2.05102E-03
   126   2 1.50000E-03  2.00000E+03  2.20420E-02  1.82303E-03  5.42066E-03
   127   1 1.50000E-03  2.00000E+03  2.66230E-02  2.94266E-03  4.04157E-03
   128   2 1.50000E-03  2.00000E+03  2.80353E-02  1.92993E-03  7.49939E-04
   129   2 1.50000E-03  2.00000E+03  2.92497E-02  3.20031E-03  3.25656E-03
   130   2 1.50000E-03  2.00000E+03  3.31672E-02  1.40521E-03  4.29000E-03
   131   2 1.50000E-03  2.00000E+03  5.05198E-03  3.29101E-03  6.75018E-03
   132   2 1.50000E-03  2.00000E+03  9.17149E-03  4.30461E-03  7.49869E-04
   133   2 1.50000E-03  2.00000E+03  9.69685E-03  5.70957E-03  7.49798E-04
   134   2 1.50000E-03  2.00000E+03  1.38490E-02  2.75845E-03  1.08452E-03
   135   1 1.50000E-03  2.00000E+03  1.74907E-02  2.15543E-03  2.92252E-03
   136   2 1.50000E-03  2.00000E+03  2.30111E-02  3.54228E-03  4.68838E-03
   137   1 1.50000E-03  2.00000E+03  2.55822E-02  3.32208E-03  7.49759E-04
   138   2 1.50000E-03  2.00000E+03  2.68549E-02  2.01754E-03  2.88403E-03
   139   2 1.50000E-03  2.00000E+03  3.87842E-02  2.62390E-03  6.75023E-03
   140   2 1.50000E-03  2.00000E+03  3.92501E-02  4.04942E-03  6.75000E-03
   141   2 1.50000E-03  2.00000E+03  3.01387E-03  2.81150E-03  2.03630E-03
   142   2 1.50000E-03  2.00000E+03  5.46406E-03  7.49975E-04  3.76816E-03
   143   2 1.50000E-03  2.00000E+03  1.15198E-02  4.16301E-03  3.55879E-03
   144   2 1.50000E-03  2.00000E+03  1.25095E-02  2.17205E-03  7.49920E-04
   145   2 1.50000E-03  2.00000E+03  1.56809E-02  3.91503E-03  2.38340E-03
   146   2 1.50000E-03  2.00000E+03  2.11445E-02  1.73136E-03  6.75017E-03
   147   1 1.50000E-03  2.00000E+03  2.17580E-02  2.16056E-03  3.83650E-03
   148   2 1.50000E-03  2.00000E+03  3.78793E-02  4.34820E-03  7.49956E-04
   149   2 1.50000E-03  2.00000E+03  3.92500E-02  3.19102E-03  4.58185E-03
   150   2 1.50000E-03  2.00000E+03  2.97324E-02  4.37118E-03  4.06010E-03
   151   2 1.50000E-03  2.00000E+03  4.91642E-03  3.32841E-03  3.24519E-03
   152   1 1.50000E-03  2.00000E+03  5.92908E-03  2.14571E-03  4.33034E-03
   153   2 1.50000E-03  2.00000E+03  6.37208E-03  3.14150E-03  7.49957E-04
   154   1 1.50000E-03  2.00000E+03  1.18480E-02  3.41459E-03  1.26788E-03
   155   2 1.50000E-03  2.00000E+03  1.60480E-02  2.67841E-03  3.14878E-03
   156   2 1.50000E-03  2.00000E+03  3.25327E-02  5.52293E-03  6.75000E-03
   157   2 1.50000E-03  2.00000E+03  3.16928E-02  3.18198E-03  3.47062E-03
   158   2 1.50000E-03  2.00000E+03  3.15754E-02  4.36822E-03  6.75012E-03
   159   2 1.50000E-03  2.00000E+03  3.47034E-02  3.96681E-03  6.75033E-03
   160   2 1.50000E-03  2.00000E+03  3.03960E-02  3.03450E-03  4.20959E-03
   161   2 1.50000E-03  2.00000E+03  7.49678E-04  3.74956E-03  7.49951E-04
   162   2 1.50000E-03  2.00000E+03  7.67171E-03  4.32646E-03  7.49939E-04
   163   2 1.50000E-03  2.00000E+03  3.11273E-03  1.97787E-03  7.49870E-04
   164   2 1.50000E-03  2.00000E+03  1.09464E-02  4.90731E-03  9.61300E-04
   165   2 1.50000E-03  2.00000E+03  1.77412E-02  3.36904E-03  7.49809E-04
   166   2 1.50000E-03  2.00000E+03  1.98927E-02  3.12245E-03  2.12264E-03
   167   2 1.50000E-03  2.00000E+03  2.29636E-02  2.85175E-03  3.27198E-03
   168   1 1.50000E-03  2.00000E+03  2.83042E-02  3.39706E-03  9.06869E-04
   169   2 1.50000E-03  2.00000E+03  3.14963E-02  4.51160E-03  4.13614E-03
   170   2 1.50000E-03  2.00000E+03  3.40637E-02  2.21363E-03  5.26724E-03
   171   2 1.50000E-03  2.00000E+03  3.49932E-03  2.88322E-03  3.45374E-03
   172   1 1.50000E-03  2.00000E+03  4.00839E-03  3.18095E-03  7.49925E-04
   173   1 1.50000E-03  2.00000E+03  1.31317E-02  2.98947E-03  5.51082E-03
   174   2 1.50000E-03  2.00000E+03  1.46926E-02  4.54562E-03  6.74644E-03
   175   2 1.50000E-03  2.00000E+03  2.07861E-02  1.94836E-03  2.39318E-03
   176   2 1.50000E-03  2.00000E+03  1.87264E-02  2.09147E-03  5.63942E-03
   177   2 1.50000E-03  2.00000E+03  1.52690E-02  4.00162E-03  5.45776E-03
   178   2 1.50000E-03  2.00000E+03  3.53893E-02  5.83887E-03  7.49973E-04
   179   2 1.50000E-03  2.00000E+03  3.43899E-02  3.56052E-03  4.15257E-03
   180   2 1.50000E-03  2.00000E+03  3.71295E-02  4.61708E-03  2.02095E-03
   181   2 1.50000E-03  2.00000E+03  5.96230E-03  3.38830E-03  2.17163E-03
   182   2 1.50000E-03  2.00000E+03  2.07325E-02  3.20359E-03  7.49927E-04
   183   2 1.50000E-03  2.00000E+03  9.69619E-03  2.56643E-03  3.88813E-03
   184   2 1.50000E-03  2.00000E+03  2.06349E-02  2.33936E-03  5.47727E-03
   185   2 1.50000E-03  2.00000E+03  8.52915E-03  4.59813E-03  2.07305E-03
   186   2 1.50000E-03  2.00000E+03  3.25228E-03  4.91961E-03  5.70957E-03
   187   1 1.50000E-03  2.00000E+03  7.05446E-03  2.92678E-03  3.19847E-03
   188   2 1.50000E-03  2.00000E+03  6.62843E-03  4.61328E-03  6.75003E-03
   189   1 1.50000E-03  2.00000E+03  2.20591E-02  2.67308E-03  2.07089E-03
   190   2 1.50000E-03  2.00000E+03  3.42225E-02  2.54658E-03  6.72117E-03
   191   1 1.50000E-03  2.00000E+03  4.23580E-03  3.90922E-03  2.04128E-03
   192   2 1.50000E-03  2.00000E+03  1.40890E-02  3.21433E-03  4.12368E-03
   193   1 1.50000E-03  2.00000E+03  1.33765E-02  4.34658E-03  3.44558E-03
   194   2 1.50000E-03  2.00000E+03  1.77607E-02  5.64363E-03  2.58723E-03
   195   2 1.50000E-03  2.00000E+03  1.51880E-02  3.34578E-03  7.49941E-04
   196   2 1.50000E-03  2.00000E+03  2.31481E-02  3.70220E-03  2.00102E-03
   197   2 1.50000E-03  2.00000E+03  3.06611E-02  4.11675E-03  2.91008E-03
   198   1 1.50000E-03  2.00000E+03  3.14912E-02  3.27871E-03  5.20509E-03
   199   2 1.50000E-03  2.00000E+03  2.53389E-02  3.67838E-03  2.18609E-03
   200   1 1.50000E-03  2.00000E+03  3.55058E-02  2.82446E-03  3.47225E-03
   201   2 1.50000E-03  2.00000E+03  1.74363E-03  4.37834E-03  4.63194E-03
   202   1 1.50000E-03  2.00000E+03  2.28416E-03  4.41839E-03  6.75005E-03
   203   2 1.50000E-03  2.00000E+03  9.62856E-03  4.17836E-03  3.16293E-03
   204   2 1.50000E-03  2.00000E+03  2.13859E-02  3.99899E-03  1.87519E-03
   205   2 1.50000E-03  2.00000E+03  1.54284E-02  3.83939E-03  3.86838E-03
   206   1 1.50000E-03  2.00000E+03  1.87608E-02  3.10737E-03  3.46474E-03
   207   2 1.50000E-03  2.00000E+03  2.41686E-02  3.74138E-03  3.19155E-03
   208   2 1.50000E-03  2.00000E+03  2.69229E-02  3.99480E-03  7.49969E-04
   209   1 1.50000E-03  2.00000E+03  3.15341E-02  3.32103E-03  1.98573E-03
   210   2 1.50000E-03  2.00000E+03  3.59484E-02  3.69853E-03  1.91773E-03
   211   2 1.50000E-03  2.00000E+03  4.31830E-03  3.30106E-03  5.44199E-03
   212   1 1.50000E-03  2.00000E+03  1.57276E-03  5.00323E-03  7.49946E-04
   213   1 1.50000E-03  2.00000E+03  5.45659E-03  4.40928E-03  5.83616E-03
   214   2 1.50000E-03  2.00000E+03  2.01152E-02  4.57037E-03  7.49934E-04
   215   2 1.50000E-03  2.00000E+03  1.91631E-02  5.25798E-03  3.24974E-03
   216   2 1.50000E-03  2.00000E+03  2.52917E-02  2.76403E-03  3.37394E-03
   217   2 1.50000E-03  2.00000E+03  3.76228E-02  4.84600E-03  5.44645E-03
   218   2 1.50000E-03  2.00000E+03  3.76773E-02  7.11425E-03  6.71532E-03
   219   1 1.50000E-03  2.00000E+03  3.44607E-02  3.53589E-03  2.01731E-03
   220   2 1.50000E-03  2.00000E+03  3.52116E-02  4.24819E-03  3.10291E-03
   221   2 1.50000E-03  2.00000E+03  3.57096E-03  4.61573E-03  7.49887E-04
   222   2 1.50000E-03  2.00000E+03  1.31169E-02  4.02422E-03  7.49997E-04
   223   2 1.50000E-03  2.00000E+03  1.15643E-02  6.94271E-03  5.84162E-03
   224   2 1.50000E-03  2.00000E+03  1.80963E-02  3.38348E-03  5.12562E-03
   225   2 1.50000E-03  2.00000E+03  5.52643E-03  3.56883E-03  4.59424E-03
   226   1 1.50000E-03  2.00000E+03  1.92558E-02  4.47243E-03  1.97533E-03
   227   2 1.50000E-03  2.00000E+03  2.44073E-02  5.19420E-03  6.75014E-03
   228   2 1.50000E-03  2.00000E+03  3.08659E-02  4.73100E-03  5.47938E-03
   229   2 1.50000E-03  2.00000E+03  3.36586E-02  5.73535E-03  7.49919E-04
   230   1 1.50000E-03  2.00000E+03  3.80549E-02  5.41548E-03  3.07442E-03
   231   2 1.50000E-03  2.00000E+03  9.52631E-03  5.28564E-03  4.51098E-03
   232   2 1.50000E-03  2.00000E+03  6.57884E-03  4.78014E-03  4.91292E-03
   233   2 1.50000E-03  2.00000E+03  1.12710E-02  5.00102E-03  5.11158E-03
   234   2 1.50000E-03  2.00000E+03  1.50225E-02  4.83661E-03  7.49885E-04
   235   2 1.50000E-03  2.00000E+03  1.61040E-02  5.87582E-03  7.49882E-04
   236   2 1.50000E-03  2.00000E+03  2.16119E-02  4.50330E-03  6.74797E-03
   237   2 1.50000E-03  2.00000E+03  2.24536E-02  5.01922E-03  2.18226E-03
   238   2 1.50000E-03  2.00000E+03  3.23939E-02  4.62438E-03  5.51958E-03
   239   2 1.50000E-03  2.00000E+03  3.77518E-02  4.11660E-03  6.75046E-03
   240   2 1.50000E-03  2.00000E+03  3.58636E-02  4.10913E-03  4.44652E-03
   241   2 1.50000E-03  2.00000E+03  4.32091E-03  4.76183E-03  6.75018E-03
   242   2 1.50000E-03  2.00000E+03  5.49100E-03  6.23902E-03  7.49870E-04
   243   2 1.50000E-03  2.00000E+03  1.23394E-02  5.41844E-03  3.60461E-03
   244   2 1.50000E-03  2.00000E+03  1.21856E-02  5.72552E-03  7.49912E-04
   245   2 1.50000E-03  2.00000E+03  2.22238E-02  3.36441E-03  7.49984E-04
   246   2 1.50000E-03  2.00000E+03  2.28843E-02  4.45137E-03  3.50210E-03
   247   2 1.50000E-03  2.00000E+03  2.96012E-02  5.19278E-03  7.49987E-04
   248   2 1.50000E-03  2.00000E+03  3.22642E-02  3.75586E-03  7.49854E-04
   249   2 1.50000E-03  2.00000E+03  3.62302E-02  4.59673E-03  7.49963E-04
   250   1 1.50000E-03  2.00000E+03  3.85098E-02  5.70925E-03  7.49932E-04
   251   2 1.50000E-03  2.00000E+03  2.00439E-03  7.13063E-03  7.49902E-04
   252   2 1.50000E-03  2.00000E+03  1.35090E-02  5.19442E-03  2.21548E-03
   253   2 1.50000E-03  2.00000E+03  8.99432E-03  5.55560E-03  3.13493E-03
   254   2 1.50000E-03  2.00000E+03  1.47395E-02  6.51844E-03  7.49952E-04
   255   2 1.50000E-03  2.00000E+03  2.33598E-02  6.74360E-03  2.50933E-03
   256   2 1.50000E-03  2.00000E+03  1.64649E-02  6.01588E-03  3.26360E-03
   257   1 1.50000E-03  2.00000E+03  3.09980E-02  4.48230E-03  1.09427E-03
   258   2 1.50000E-03  2.00000E+03  2.56300E-02  5.07722E-03  5.35299E-03
   259   2 1.50000E-03  2.00000E+03  3.34421E-02  4.58750E-03  1.69092E-03
   260   2 1.50000E-03  2.00000E+03  3.33461E-02  5.88858E-03  5.54390E-03
   261   1 1.50000E-03  2.00000E+03  8.02977E-03  4.57906E-03  4.59069E-03
   262   2 1.50000E-03  2.00000E+03  8.96586E-03  7.01940E-03  7.49972E-04
   263   2 1.50000E-03  2.00000E+03  1.36641E-02  5.47279E-03  7.49862E-04
   264   1 1.50000E-03  2.00000E+03  2.02031E-02  4.18310E-03  3.13670E-03
   265   2 1.50000E-03  2.00000E+03  3.02912E-02  5.69643E-03  4.48561E-03
   266   2 1.50000E-03  2.00000E+03  1.02695E-02  6.70276E-03  2.95792E-03
   267   2 1.50000E-03  2.00000E+03  2.67776E-02  5.51820E-03  7.49894E-04
   268   2 1.50000E-03  2.00000E+03  2.91515E-02  7.12835E-03  6.75004E-03
   269   2 1.50000E-03  2.00000E+03  3.76966E-02  7.83122E-03  5.39791E-03
   270   2 1.50000E-03  2.00000E+03  2.81733E-02  6.46088E-03  5.74477E-03
   271   1 1.50000E-03  2.00000E+03  2.12975E-03  5.73551E-03  5.14040E-03
   272   2 1.50000E-03  2.00000E+03  1.28139E-02  6.48121E-03  1.88296E-03
   273   2 1.50000E-03  2.00000E+03  1.31927E-02  4.55172E-03  6.75002E-03
   274   2 1.50000E-03  2.00000E+03  7.38573E-03  5.55880E-03  3.65525E-03
   275   2 1.50000E-03  2.00000E+03  2.56037E-02  4.99867E-03  1.52564E-03
   276   2 1.50000E-03  2.00000E+03  1.79203E-02  4.73424E-03  1.34452E-03
   277   2 1.50000E-03  2.00000E+03  2.44937E-02  4.35391E-03  7.49851E-04
   278   2 1.50000E-03  2.00000E+03  3.00873E-02  5.75583E-03  2.05253E-03
   279   1 1.50000E-03  2.00000E+03  3.17396E-02  5.80218E-03  4.86050E-03
   280   2 1.50000E-03  2.00000E+03  3.92502E-02  7.07480E-03  7.49900E-04
   281   2 1.50000E-03  2.00000E+03  4.03048E-03  6.57974E-03  7.49770E-04
   282   2 1.50000E-03  2.00000E+03  4.68067E-03  5.25030E-03  1.53447E-03
   283   2 1.50000E-03  2.00000E+03  2.75026E-03  5.87171E-03  1.07926E-03
   284   2 1.50000E-03  2.00000E+03  1.73752E-02  7.08146E-03  6.75009E-03
   285   2 1.50000E-03  2.00000E+03  1.80642E-02  7.49450E-03  7.49941E-04
   286   2 1.50000E-03  2.00000E+03  2.30204E-02  4.63531E-03  7.49959E-04
   287   2 1.50000E-03  2.00000E+03  2.40160E-02  5.77580E-03  7.49991E-04
   288   2 1.50000E-03  2.00000E+03  3.39577E-02  5.06703E-03  3.01850E-03
   289   2 1.50000E-03  2.00000E+03  3.58226E-02  7.67808E-03  6.75013E-03
   290   1 1.50000E-03  2.00000E+03  3.70187E-02  5.87275E-03  7.52761E-04
   291   2 1.50000E-03  2.00000E+03  7.49973E-04  6.25737E-03  7.49955E-04
   292   1 1.50000E-03  2.00000E+03  1.18885E-02  7.19580E-03  7.49999E-04
   293   1 1.50000E-03  2.00000E+03  6.92134E-03  6.39731E-03  1.17199E-03
   294   2 1.50000E-03  2.00000E+03  1.45712E-02  7.15861E-03  5.75277E-03
   295   2 1.50000E-03  2.00000E+03  1.68151E-02  5.85950E-03  4.78554E-03
   296   2 1.50000E-03  2.00000E+03  2.40936E-02  4.86216E-03  2.10307E-03
   297   2 1.50000E-03  2.00000E+03  2.08933E-02  5.27604E-03  5.68126E-03
   298   2 1.50000E-03  2.00000E+03  3.22375E-02  5.25557E-03  7.50727E-04
   299   1 1.50000E-03  2.00000E+03  3.42219E-02  6.19246E-03  2.06276E-03
   300   2 1.50000E-03  2.00000E+03  3.92501E-02  5.94233E-03  3.81188E-03
   301   1 1.50000E-03  2.00000E+03  1.06746E-02  6.62666E-03  1.42268E-03
   302   2 1.50000E-03  2.00000E+03  7.73138E-03  7.37600E-03  1.96944E-03
   303   1 1.50000E-03  2.00000E+03  2.25749E-02  6.02902E-03  1.07992E-03
   304   2 1.50000E-03  2.00000E+03  2.85130E-02  5.77069E-03  4.45710E-03
   305   2 1.50000E-03  2.00000E+03  2.30117E-02  7.42532E-03  7.49800E-04
   306   2 1.50000E-03  2.00000E+03  2.58587E-02  5.57232E-03  6.75016E-03
   307   2 1.50000E-03  2.00000E+03  2.67276E-02  5.56237E-03  2.40019E-03
   308   2 1.50000E-03  2.00000E+03  3.20244E-02  4.72783E-03  2.16013E-03
   309   2 1.50000E-03  2.00000E+03  3.59736E-02  6.14006E-03  3.34846E-03
   310   2 1.50000E-03  2.00000E+03  3.69978E-02  6.09284E-03  2.25382E-03
   311   2 1.50000E-03  2.00000E+03  1.93409E-03  5.44286E-03  2.26222E-03
   312   2 1.50000E-03  2.00000E+03  7.68579E-03  7.90968E-03  6.75012E-03
   313   2 1.50000E-03  2.00000E+03  1.93669E-02  6.42489E-03  4.16982E-03
   314   2 1.50000E-03  2.00000E+03  1.16002E-02  7.30130E-03  3.30582E-03
   315   1 1.50000E-03  2.00000E+03  1.93999E-02  6.96636E-03  1.18176E-03
   316   2 1.50000E-03  2.00000E+03  2.49401E-02  6.08044E-03  2.32501E-03
   317   1 1.50000E-03  2.00000E+03  2.79240E-02  6.19157E-03  1.44424E-03
   318   2 1.50000E-03  2.00000E+03  3.01434E-02  6.61210E-03  3.30694E-03
   319   2 1.50000E-03  2.00000E+03  2.85998E-02  8.54101E-03  1.85415E-03
   320   2 1.50000E-03  2.00000E+03  3.78932E-02  8.27656E-03  7.49891E-04
   321   2 1.50000E-03  2.00000E+03  2.26687E-03  7.90867E-03  2.00510E-03
   322   2 1.50000E-03  2.00000E+03  6.28721E-03  7.68931E-03  7.49949E-04
   323   2 1.50000E-03  2.00000E+03  5.94359E-03  5.79954E-03  2.14584E-03
   324   2 1.50000E-03  2.00000E+03  1.78849E-02  6.63663E-03  4.07728E-03
   325   2 1.50000E-03  2.00000E+03  1.75911E-02  6.07117E-03  7.49795E-04
   326   2 1.50000E-03  2.00000E+03  2.54319E-02  6.27093E-03  7.49962E-04
   327   2 1.50000E-03  2.00000E+03  1.78507E-02  4.82484E-03  5.46237E-03
   328   2 1.50000E-03  2.00000E+03  3.23276E-02  7.98075E-03  6.75011E-03
   329   1 1.50000E-03  2.00000E+03  3.58908E-02  7.43489E-03  4.10096E-03
   330   2 1.50000E-03  2.00000E+03  3.68005E-02  7.57965E-03  2.27503E-03
   331   2 1.50000E-03  2.00000E+03  1.07172E-02  5.42887E-03  3.61085E-03
   332   2 1.50000E-03  2.00000E+03  4.79810E-03  7.86830E-03  7.49954E-04
   333   2 1.50000E-03  2.00000E+03  1.50077E-02  6.39482E-03  3.31877E-03
   334   2 1.50000E-03  2.00000E+03  2.04878E-02  7.46718E-03  2.08484E-03
   335   2 1.50000E-03  2.00000E+03  2.03473E-02  6.31900E-03  3.03970E-03
   336   2 1.50000E-03  2.00000E+03  1.56036E-02  7.43700E-03  2.20617E-03
   337   2 1.50000E-03  2.00000E+03  2.54252E-02  8.17026E-03  2.40685E-03
   338   1 1.50000E-03  2.00000E+03  2.76462E-02  6.44466E-03  3.19250E-03
   339   2 1.50000E-03  2.00000E+03  2.89203E-02  6.70024E-03  2.44325E-03
   340   2 1.50000E-03  2.00000E+03  3.35768E-02  7.25099E-03  7.49972E-04
   341   2 1.50000E-03  2.00000E+03  4.51413E-03  6.00277E-03  3.44809E-03
   342   1 1.50000E-03  2.00000E+03  3.42765E-03  5.87774E-03  2.41754E-03
   343   2 1.50000E-03  2.00000E+03  1.23376E-02  7.85168E-03  6.75016E-03
   344   2 1.50000E-03  2.00000E+03  2.42602E-02  9.06479E-03  2.10157E-03
   345   2 1.50000E-03  2.00000E+03  2.43172E-02  7.09033E-03  1.40788E-03
   346   2 1.50000E-03  2.00000E+03  2.26658E-02  7.78845E-03  3.48379E-03
   347   2 1.50000E-03  2.00000E+03  2.40990E-02  7.92533E-03  3.06346E-03
   348   2 1.50000E-03  2.00000E+03  2.30493E-02  8.19890E-03  6.75008E-03
   349   2 1.50000E-03  2.00000E+03  2.68799E-02  7.01469E-03  7.49909E-04
   350   2 1.50000E-03  2.00000E+03  2.97189E-02  8.72075E-03  2.83664E-03
   351   1 1.50000E-03  2.00000E+03  1.99460E-03  6.77495E-03  2.94867E-03
   352   2 1.50000E-03  2.00000E+03  4.68026E-03  6.63947E-03  2.10024E-03
   353   1 1.50000E-03  2.00000E+03  8.76840E-03  7.29148E-03  5.44150E-03
   354   2 1.50000E-03  2.00000E+03  1.76847E-02  7.59814E-03  2.58949E-03
   355   1 1.50000E-03  2.00000E+03  1.46362E-02  8.00795E-03  1.21220E-03
   356   2 1.50000E-03  2.00000E+03  3.03002E-02  9.42772E-03  4.19009E-03
   357   2 1.50000E-03  2.00000E+03  1.75206E-02  9.36940E-03  6.75008E-03
   358   2 1.50000E-03  2.00000E+03  2.95848E-02  8.29570E-03  7.49912E-04
   359   1 1.50000E-03  2.00000E+03  3.26830E-02  6.96094E-03  4.72976E-03
   360   2 1.50000E-03  2.00000E+03  2.52184E-02  7.01218E-03  3.46698E-03
   361   2 1.50000E-03  2.00000E+03  2.28683E-03  7.02917E-03  4.39774E-03
   362   2 1.50000E-03  2.00000E+03  7.67948E-03  8.24712E-03  7.49645E-04
   363   2 1.50000E-03  2.00000E+03  8.85348E-03  8.10425E-03  4.18369E-03
   364   2 1.50000E-03  2.00000E+03  6.61546E-03  6.27726E-03  4.99464E-03
   365   2 1.50000E-03  2.00000E+03  1.59743E-02  7.37010E-03  7.49992E-04
   366   2 1.50000E-03  2.00000E+03  2.55883E-02  7.74802E-03  9.58890E-04
   367   2 1.50000E-03  2.00000E+03  3.50757E-02  7.30570E-03  7.49794E-04
   368   2 1.50000E-03  2.00000E+03  2.62570E-02  7.01830E-03  6.75010E-03
   369   2 1.50000E-03  2.00000E+03  2.83049E-02  7.48306E-03  7.49996E-04
   370   2 1.50000E-03  2.00000E+03  2.75405E-02  7.50082E-03  2.06764E-03
   371   1 1.50000E-03  2.00000E+03  7.49848E-04  7.95274E-03  7.49960E-04
   372   1 1.50000E-03  2.00000E+03  3.77233E-03  7.82964E-03  2.19588E-03
   373   2 1.50000E-03  2.00000E+03  1.05007E-02  7.60844E-03  5.01969E-03
   374   2 1.50000E-03  2.00000E+03  5.79849E-03  9.10740E-03  7.49872E-04
   375   2 1.50000E-03  2.00000E+03  1.44759E-02  8.27495E-03  6.75003E-03
   376   2 1.50000E-03  2.00000E+03  2.32377E-02  6.71084E-03  6.75007E-03
   377   2 1.50000E-03  2.00000E+03  2.71868E-02  8.48294E-03  7.49957E-04
   378   1 1.50000E-03  2.00000E+03  3.03789E-02  7.95056E-03  3.94175E-03
   379   2 1.50000E-03  2.00000E+03  2.84460E-02  7.90343E-03  3.20288E-03
   380   2 1.50000E-03  2.00000E+03  3.85699E-02  8.37949E-03  6.62139E-03
   381   2 1.50000E-03  2.00000E+03  1.90659E-02  9.59750E-03  6.53828E-03
   382   2 1.50000E-03  2.00000E+03  7.51866E-04  8.62987E-03  2.08840E-03
   383   1 1.50000E-03  2.00000E+03  6.67727E-03  7.60914E-03  5.68137E-03
   384   2 1.50000E-03  2.00000E+03  1.07692E-02  7.90450E-03  2.21248E-03
   385   2 1.50000E-03  2.00000E+03  2.02913E-02  7.99854E-03  6.75001E-03
   386   1 1.50000E-03  2.00000E+03  1.65989E-02  7.38066E-03  3.87128E-03
   387   1 1.50000E-03  2.00000E+03  1.41285E-02  7.11472E-03  4.32040E-03
   388   1 1.50000E-03  2.00000E+03  3.92501E-02  7.71972E-03  2.10415E-03
   389   2 1.50000E-03  2.00000E+03  3.92500E-02  8.91259E-03  8.17097E-04
   390   2 1.50000E-03  2.00000E+03  2.93821E-02  8.61051E-03  6.75002E-03
   391   2 1.50000E-03  2.00000E+03  5.82694E-03  8.22881E-03  6.75016E-03
   392   2 1.50000E-03  2.00000E+03  8.01698E-03  8.85402E-03  2.07899E-03
   393   2 1.50000E-03  2.00000E+03  7.49807E-04  7.44926E-03  3.44410E-03
   394   2 1.50000E-03  2.00000E+03  2.44085E-02  9.92813E-03  4.69955E-03
   395   2 1.50000E-03  2.00000E+03  4.09893E-03  9.19528E-03  7.49891E-04
   396   2 1.50000E-03  2.00000E+03  1.74195E-02  1.11975E-02  5.47300E-03
   397   2 1.50000E-03  2.00000E+03  1.34003E-02  8.09532E-03  5.72007E-03